Species,River,WATERSHED_CDE,DFO,CU,BroodYear,hararea_m2_3005,area_km2,ln_area_km2,Spawners,logS,Recruits,Returns,recruitPerSpawner,ln_RS,ECA_age_proxy,ECA_age_proxy_forested_only,lake_cover_pct,var_eaubc_KFACTOR,var_eaubc_MELTONS_R,vri_bec_zone,npgo,portion_reporting_vri_cover1_missing,hatchery_enhancement,year_of_enhacement,ln_area_km2_std,ECA_age_proxy_forested_only_std
PKO,KLEKANE RIVER,910-556700-00000-00000-0000-0000-000-000-000-000-000-000,6,PKO-13,1995,0,93.756,4.540695662802608,2400,7.783224016336037,1118.72436669803,2728.52389190336,0.46613515279084583,-0.7632796594581543,0.0025,0.0042,0.038,-6.97591,0.237788,CWH,-0.5672147431639023,0,FALSE,FALSE,0.42149659080706287,-0.5434161907448165
PKO,KLEKANE RIVER,910-556700-00000-00000-0000-0000-000-000-000-000-000-000,6,PKO-13,1997,0,93.756,4.540695662802608,950,6.856461984594587,437.365658900889,1118.72436669803,0.4603849041061989,-0.7756923913205378,0.0025,0.0042,0.038,-6.97591,0.237788,CWH,0.8907774948170872,0,FALSE,FALSE,0.42149659080706287,-0.5434161907448165
PKO,KLEKANE RIVER,910-556700-00000-00000-0000-0000-000-000-000-000-000-000,6,PKO-13,1999,0,93.756,4.540695662802608,400,5.991464547107982,3411.75666810475,437.365658900889,8.529391670261875,2.143518042461251,0.001,0.0017,0.038,-6.97591,0.237788,CWH,1.6302835492491898,0,FALSE,FALSE,0.42149659080706287,-0.5763138957337526
PKO,KLEKANE RIVER,910-556700-00000-00000-0000-0000-000-000-000-000-000-000,6,PKO-13,2001,0,93.756,4.540695662802608,2500,7.824046010856292,2065.66296378678,3411.75666810475,0.826265185514712,-0.19083950914735434,0.001,0.0017,0.038,-6.97591,0.237788,CWH,1.9190067210816288,0,FALSE,FALSE,0.42149659080706287,-0.5763138957337526
PKO,KLEKANE RIVER,910-556700-00000-00000-0000-0000-000-000-000-000-000-000,6,PKO-13,2007,0,93.756,4.540695662802608,2500,7.824046010856292,3869.67690759548,3113.03540253812,1.547870763038192,0.43688028527291445,0.001,0.0017,0.038,-6.97591,0.237788,CWH,0.8768892458318005,0,FALSE,FALSE,0.42149659080706287,-0.5763138957337526
PKO,KLEKANE RIVER,910-556700-00000-00000-0000-0000-000-000-000-000-000-000,6,PKO-13,2009,0,93.756,4.540695662802608,3000,8.006367567650246,1009.30670072022,3869.67690759548,0.33643556690674,-1.0893486284497438,1e-4,2e-4,0.038,-6.97591,0.237788,CWH,1.604652193542091,0,FALSE,FALSE,0.42149659080706287,-0.5960525187271143
PKO,KLEKANE RIVER,910-556700-00000-00000-0000-0000-000-000-000-000-000-000,6,PKO-13,2011,0,93.756,4.540695662802608,850,6.745236349484363,2353.87268850977,1009.30670072022,2.7692619864820824,1.0185808538273422,1e-4,2e-4,0.038,-6.97591,0.237788,CWH,0.7408851700104637,0,FALSE,FALSE,0.42149659080706287,-0.5960525187271143
PKO,ANGLER COVE CREEK,910-564100-00000-00000-0000-0000-000-000-000-000-000-000,6,PKO-13,1955,0,26.112,3.2623949787816966,200,5.298317366548036,44.2955210913407,382.709313391688,0.2214776054567035,-1.5074337986412454,0.0287,0.0472,0.114,0.22526,0.216755,CWH,-0.07106879047729574,0,FALSE,FALSE,-0.4743425486847864,0.02242433506488331
PKO,ANGLER COVE CREEK,910-564100-00000-00000-0000-0000-000-000-000-000-000-000,6,PKO-13,1957,0,26.112,3.2623949787816966,25,3.2188758248682006,34.3828294086374,44.2955210913407,1.375313176345496,0.3186814697990188,0.0287,0.0472,0.114,0.22526,0.216755,CWH,-0.3276691034772351,0,FALSE,FALSE,-0.4743425486847864,0.02242433506488331
PKO,ANGLER COVE CREEK,910-564100-00000-00000-0000-0000-000-000-000-000-000-000,6,PKO-13,1959,0,26.112,3.2623949787816966,25,3.2188758248682006,49.2332611791007,34.3828294086374,1.969330447164028,0.6776936104434305,0.0125,0.0206,0.114,0.22526,0.216755,CWH,0.7824977620566573,0,FALSE,FALSE,-0.4743425486847864,-0.32760724601739616
PKO,ANGLER COVE CREEK,910-564100-00000-00000-0000-0000-000-000-000-000-000-000,6,PKO-13,1961,0,26.112,3.2623949787816966,25,3.2188758248682006,49.0569073488348,49.2332611791007,1.962276293953392,0.6741051738348129,0.0125,0.0206,0.114,0.22526,0.216755,CWH,0.00583928468743269,0,FALSE,FALSE,-0.4743425486847864,-0.32760724601739616
PKO,ANGLER COVE CREEK,910-564100-00000-00000-0000-0000-000-000-000-000-000-000,6,PKO-13,1981,0,26.112,3.2623949787816966,10,2.302585092994046,171.877034460116,29.2208530129204,17.1877034460116,2.8441942122155917,0.0151,0.0248,0.114,0.22526,0.216755,CWH,-0.22613906119882837,0,FALSE,FALSE,-0.4743425486847864,-0.2723391016359836
PKO,ANGLER COVE CREEK,910-564100-00000-00000-0000-0000-000-000-000-000-000-000,6,PKO-13,1983,0,26.112,3.2623949787816966,100,4.605170185988092,5277.34790746113,171.877034460116,52.773479074611295,3.9660087742686345,0.0151,0.0248,0.114,0.22526,0.216755,CWH,0.10267616261581472,0,FALSE,FALSE,-0.4743425486847864,-0.2723391016359836
PKO,ANGLER COVE CREEK,910-564100-00000-00000-0000-0000-000-000-000-000-000-000,6,PKO-13,1985,0,26.112,3.2623949787816966,2900,7.9724660159745655,308.629578687231,5277.34790746113,0.10642399265076931,-2.2403242326566755,0.0151,0.0248,0.114,0.22526,0.216755,CWH,-0.9758993397997916,0,FALSE,FALSE,-0.4743425486847864,-0.2723391016359836
PKO,ANGLER COVE CREEK,910-564100-00000-00000-0000-0000-000-000-000-000-000-000,6,PKO-13,1987,0,26.112,3.2623949787816966,150,5.0106352940962555,778.403311327686,308.629578687231,5.18935540885124,1.6466094907845874,0.0151,0.0248,0.114,0.22526,0.216755,CWH,0.8862048812919091,0,FALSE,FALSE,-0.4743425486847864,-0.2723391016359836
PKO,ANGLER COVE CREEK,910-564100-00000-00000-0000-0000-000-000-000-000-000-000,6,PKO-13,1989,0,26.112,3.2623949787816966,700,6.551080335043404,1449.46493094313,778.403311327686,2.070664187061614,0.7278694191264423,0.0043,0.0071,0.114,0.22526,0.216755,CWH,0.15947767939610902,0,FALSE,FALSE,-0.4743425486847864,-0.5052548529576507
PKO,ANGLER COVE CREEK,910-564100-00000-00000-0000-0000-000-000-000-000-000-000,6,PKO-13,1991,0,26.112,3.2623949787816966,1100,7.003065458786462,1926.11677572186,1449.46493094313,1.7510152506562364,0.5601957629495301,0.0043,0.0071,0.114,0.22526,0.216755,CWH,-0.18487911555035336,0,FALSE,FALSE,-0.4743425486847864,-0.5052548529576507
PKO,ANGLER COVE CREEK,910-564100-00000-00000-0000-0000-000-000-000-000-000-000,6,PKO-13,1993,0,26.112,3.2623949787816966,1800,7.495541943884256,1591.63893694363,1926.11677572186,0.8842438538575722,-0.12302240160481716,0.0043,0.0071,0.114,0.22526,0.216755,CWH,-1.7567819796155162,0,FALSE,FALSE,-0.4743425486847864,-0.5052548529576507
PKO,ANGLER COVE CREEK,910-564100-00000-00000-0000-0000-000-000-000-000-000-000,6,PKO-13,1995,0,26.112,3.2623949787816966,1400,7.24422751560335,235.520919304848,1591.63893694363,0.16822922807489143,-1.782427776772019,0.0043,0.0071,0.114,0.22526,0.216755,CWH,-0.5672147431639023,0,FALSE,FALSE,-0.4743425486847864,-0.5052548529576507
PKO,ANGLER COVE CREEK,910-564100-00000-00000-0000-0000-000-000-000-000-000-000,6,PKO-13,2001,0,26.112,3.2623949787816966,4000,8.294049640102028,811.510450059092,5458.8106689676,0.20287761251477301,-1.5951523757699233,0.0039,0.0065,0.114,0.22526,0.216755,CWH,1.9190067210816288,0,FALSE,FALSE,-0.4743425486847864,-0.5131503021549955
PKO,ANGLER COVE CREEK,910-564100-00000-00000-0000-0000-000-000-000-000-000-000,6,PKO-13,2009,0,26.112,3.2623949787816966,2000,7.600902459542082,593.709823953068,2579.78460506365,0.296854911976534,-1.214511771403754,8e-4,0.0013,0.114,0.22526,0.216755,CWH,1.604652193542091,0,FALSE,FALSE,-0.4743425486847864,-0.5815775285319824
PKO,ANGLER COVE CREEK,910-564100-00000-00000-0000-0000-000-000-000-000-000-000,6,PKO-13,2011,0,26.112,3.2623949787816966,500,6.214608098422191,2484.64339342698,593.709823953068,4.96928678685396,1.6032763261597887,8e-4,0.0013,0.114,0.22526,0.216755,CWH,0.7408851700104637,0,FALSE,FALSE,-0.4743425486847864,-0.5815775285319824
PKO,PARIL RIVER,910-582400-00000-00000-0000-0000-000-000-000-000-000-000,6,PKO-13,1955,0,54.019,3.9893358365307794,400,5.991464547107982,44.2955210913407,765.418626783376,0.11073880272835175,-2.200580979201191,0.0039,0.0053,0.011,0.23827,0.207649,CWH,-0.07106879047729574,0,FALSE,FALSE,0.03510102793834244,-0.5289412005496847
PKO,PARIL RIVER,910-582400-00000-00000-0000-0000-000-000-000-000-000-000,6,PKO-13,1963,0,54.019,3.9893358365307794,25,3.2188758248682006,76.0014880240139,49.0569073488348,3.040059520960556,1.1118770944897998,0.0014,0.002,0.011,0.23827,0.207649,CWH,0.5797944041154652,0,FALSE,FALSE,0.03510102793834244,-0.5723661711350803
PKO,PARIL RIVER,910-582400-00000-00000-0000-0000-000-000-000-000-000-000,6,PKO-13,1965,0,54.019,3.9893358365307794,25,3.2188758248682006,109.121709983172,76.0014880240139,4.3648683993268795,1.4735880397710663,0.0014,0.002,0.011,0.23827,0.207649,CWH,-0.7093794641235007,0,FALSE,FALSE,0.03510102793834244,-0.5723661711350803
PKO,PARIL RIVER,910-582400-00000-00000-0000-0000-000-000-000-000-000-000,6,PKO-13,1975,100115.801269262,54.019,3.9893358365307794,10,2.302585092994046,86.0798868659622,14.3543198963999,8.607988686596219,2.1526906891290922,0.0062,0.0085,0.011,0.23827,0.207649,CWH,1.2286162579398736,0,FALSE,FALSE,0.03510102793834244,-0.4868321381638466
PKO,PARIL RIVER,910-582400-00000-00000-0000-0000-000-000-000-000-000-000,6,PKO-13,1977,0,54.019,3.9893358365307794,50,3.912023005428146,84.1185140495449,86.0798868659622,1.682370280990898,0.5202036805991769,0.0062,0.0085,0.011,0.23827,0.207649,CWH,0.9724829797884954,0,FALSE,FALSE,0.03510102793834244,-0.4868321381638466
PKO,PARIL RIVER,910-582400-00000-00000-0000-0000-000-000-000-000-000-000,6,PKO-13,1979,43070.9514186281,54.019,3.9893358365307794,50,3.912023005428146,233.766824103363,84.1185140495449,4.6753364820672605,1.542301134924336,0.0068,0.0093,0.011,0.23827,0.207649,CWH,-1.19975713829789,0,FALSE,FALSE,0.03510102793834244,-0.4763048725673871
PKO,PARIL RIVER,910-582400-00000-00000-0000-0000-000-000-000-000-000-000,6,PKO-13,1981,0,54.019,3.9893358365307794,80,4.382026634673881,464.067993042314,233.766824103363,5.800849913028925,1.758004443546041,0.0068,0.0093,0.011,0.23827,0.207649,CWH,-0.22613906119882837,0,FALSE,FALSE,0.03510102793834244,-0.4763048725673871
PKO,PARIL RIVER,910-582400-00000-00000-0000-0000-000-000-000-000-000-000,6,PKO-13,1983,0,54.019,3.9893358365307794,270,5.598421958998375,1364.83135537788,464.067993042314,5.054930945844,1.6203641918141432,0.0056,0.0077,0.011,0.23827,0.207649,CWH,0.10267616261581472,0,FALSE,FALSE,0.03510102793834244,-0.49735940376030613
PKO,PARIL RIVER,910-582400-00000-00000-0000-0000-000-000-000-000-000-000,6,PKO-13,1985,0,54.019,3.9893358365307794,750,6.620073206530356,617.259157374463,1364.83135537788,0.8230122098326174,-0.19478424265251904,0.0056,0.0077,0.011,0.23827,0.207649,CWH,-0.9758993397997916,0,FALSE,FALSE,0.03510102793834244,-0.49735940376030613
PKO,PARIL RIVER,910-582400-00000-00000-0000-0000-000-000-000-000-000-000,6,PKO-13,1987,0,54.019,3.9893358365307794,300,5.703782474656201,1112.00473046812,617.259157374463,3.7066824348937333,1.3101372541633718,0.0052,0.0071,0.011,0.23827,0.207649,CWH,0.8862048812919091,0,FALSE,FALSE,0.03510102793834244,-0.5052548529576507
PKO,PARIL RIVER,910-582400-00000-00000-0000-0000-000-000-000-000-000-000,6,PKO-13,1989,0,54.019,3.9893358365307794,1000,6.907755278982137,395.308617529944,1112.00473046812,0.395308617529944,-0.9280885089425521,0.0046,0.0063,0.011,0.23827,0.207649,CWH,0.15947767939610902,0,FALSE,FALSE,0.03510102793834244,-0.5157821185541103
PKO,PARIL RIVER,910-582400-00000-00000-0000-0000-000-000-000-000-000-000,6,PKO-13,1991,1061009.7807229,54.019,3.9893358365307794,300,5.703782474656201,32.1019462620311,395.308617529944,0.10700648754010367,-2.2348658151423066,0.0241,0.0329,0.011,0.23827,0.207649,CWH,-0.18487911555035336,0,FALSE,FALSE,0.03510102793834244,-0.16575053747183086
PKO,PARIL RIVER,910-582400-00000-00000-0000-0000-000-000-000-000-000-000,6,PKO-13,1993,1743150.52908639,54.019,3.9893358365307794,30,3.4011973816621555,909.507963967787,32.1019462620311,30.316932132259566,3.4117063726818593,0.0846,0.1159,0.011,0.23827,0.207649,CWH,-1.7567819796155162,0,FALSE,FALSE,0.03510102793834244,0.9264532681608458
PKO,PARIL RIVER,910-582400-00000-00000-0000-0000-000-000-000-000-000-000,6,PKO-13,1995,99854.5063115219,54.019,3.9893358365307794,800,6.684611727667927,270.849057200575,909.507963967787,0.3385613215007187,-1.0830500464614383,0.0909,0.1244,0.011,0.23827,0.207649,CWH,-0.5672147431639023,0,FALSE,FALSE,0.03510102793834244,1.0383054651232282
PKO,PARIL RIVER,910-582400-00000-00000-0000-0000-000-000-000-000-000-000,6,PKO-13,1997,0,54.019,3.9893358365307794,230,5.438079308923196,1640.12122087833,270.849057200575,7.130961829905782,1.9644461243331706,0.09,0.1232,0.011,0.23827,0.207649,CWH,0.8907774948170872,0,FALSE,FALSE,0.03510102793834244,1.0225145667285391
PKO,PARIL RIVER,910-582400-00000-00000-0000-0000-000-000-000-000-000-000,6,PKO-13,1999,11376.5381190174,54.019,3.9893358365307794,1500,7.313220387090301,1091.76213379352,1640.12122087833,0.7278414225290133,-0.31767208070943304,0.0902,0.1235,0.011,0.23827,0.207649,CWH,1.6302835492491898,0,FALSE,FALSE,0.03510102793834244,1.0264622913272115
PKO,PARIL RIVER,910-582400-00000-00000-0000-0000-000-000-000-000-000-000,6,PKO-13,2001,1090041.0266533,54.019,3.9893358365307794,800,6.684611727667927,1770.56825467438,1091.76213379352,2.2132103183429748,0.7944440942137505,0.11,0.1505,0.011,0.23827,0.207649,CWH,1.9190067210816288,0,FALSE,FALSE,0.03510102793834244,1.3817575052077207
PKO,PARIL RIVER,910-582400-00000-00000-0000-0000-000-000-000-000-000-000,6,PKO-13,2003,1110506.11258038,54.019,3.9893358365307794,1200,7.090076835776092,1492.17595963936,1770.56825467438,1.2434799663661333,0.21791387344890079,0.1319,0.1805,0.011,0.23827,0.207649,CWH,0.41101277747559006,0,FALSE,FALSE,0.03510102793834244,1.776529965074953
PKO,PARIL RIVER,910-582400-00000-00000-0000-0000-000-000-000-000-000-000,6,PKO-13,2005,572.927573338784,54.019,3.9893358365307794,1000,6.907755278982137,1743.29982542135,1492.17595963936,1.74329982542135,0.5557797686243958,0.1227,0.168,0.011,0.23827,0.207649,CWH,-0.8145696192436794,0,FALSE,FALSE,0.03510102793834244,1.6120414401302732
PKO,PARIL RIVER,910-582400-00000-00000-0000-0000-000-000-000-000-000-000,6,PKO-13,2007,0,54.019,3.9893358365307794,1400,7.24422751560335,2321.80614455729,1743.29982542135,1.658432960398064,0.5058731567598667,0.1223,0.1673,0.011,0.23827,0.207649,CWH,0.8768892458318005,0,FALSE,FALSE,0.03510102793834244,1.6028300827333708
PKO,PARIL RIVER,910-582400-00000-00000-0000-0000-000-000-000-000-000-000,6,PKO-13,2013,0,54.019,3.9893358365307794,4870,8.490849216076635,347.532105015861,6368.5333294681,0.07136182854535134,-2.6399921668044946,0.0883,0.1209,0.011,0.23827,0.207649,CWH,-0.5528640906240193,0,FALSE,FALSE,0.03510102793834244,0.9922486781387176
PKO,KILTUISH RIVER,910-593300-00000-00000-0000-0000-000-000-000-000-000-000,6,PKO-13,1955,0,128.288,4.854277736460096,1500,7.313220387090301,44.2955210913407,2870.31985043766,0.029530347394227136,-3.52233681918351,0.0202,0.054,0.008,0.2376,0.193885,CWH,-0.07106879047729574,2.5281063996289396e-11,FALSE,FALSE,0.6412563848343643,0.11190609263478934
PKO,KILTUISH RIVER,910-593300-00000-00000-0000-0000-000-000-000-000-000-000,6,PKO-13,1957,0,128.288,4.854277736460096,25,3.2188758248682006,103.148488225912,44.2955210913407,4.12593952903648,1.4172937584671266,0.0167,0.0447,0.008,0.2376,0.193885,CWH,-0.3276691034772351,2.5281063996289396e-11,FALSE,FALSE,0.6412563848343643,-0.010473369924052761
PKO,KILTUISH RIVER,910-593300-00000-00000-0000-0000-000-000-000-000-000-000,6,PKO-13,1959,0,128.288,4.854277736460096,75,4.31748811353631,2953.99567074604,103.148488225912,39.386608943280535,3.673425883997421,0.0167,0.0447,0.008,0.2376,0.193885,CWH,0.7824977620566573,2.5281063996289396e-11,FALSE,FALSE,0.6412563848343643,-0.010473369924052761
PKO,KILTUISH RIVER,910-593300-00000-00000-0000-0000-000-000-000-000-000-000,6,PKO-13,1961,66605.1693766616,128.288,4.854277736460096,1500,7.313220387090301,14717.0722046504,2953.99567074604,9.811381469766934,2.2835430862689106,0.0173,0.0461,0.008,0.2376,0.193885,CWH,0.00583928468743269,2.5281063996289396e-11,FALSE,FALSE,0.6412563848343643,0.007949344869751494
PKO,KILTUISH RIVER,910-593300-00000-00000-0000-0000-000-000-000-000-000-000,6,PKO-13,1963,0,128.288,4.854277736460096,7500,8.922658299524402,22800.4464072042,14717.0722046504,3.04005952096056,1.111877094489801,0.0168,0.0448,0.008,0.2376,0.193885,CWH,0.5797944041154652,2.5281063996289396e-11,FALSE,FALSE,0.6412563848343643,-0.009157461724495282
PKO,KILTUISH RIVER,910-593300-00000-00000-0000-0000-000-000-000-000-000-000,6,PKO-13,1965,0,128.288,4.854277736460096,7500,8.922658299524402,5092.34646588136,22800.4464072042,0.6789795287841813,-0.38716430094394005,0.0166,0.0442,0.008,0.2376,0.193885,CWH,-0.7093794641235007,2.5281063996289396e-11,FALSE,FALSE,0.6412563848343643,-0.017052910921839883
PKO,KILTUISH RIVER,910-593300-00000-00000-0000-0000-000-000-000-000-000-000,6,PKO-13,1967,0,128.288,4.854277736460096,3500,8.160518247477505,350.695686020824,5092.34646588136,0.10019876743452114,-2.3005993914597145,0.0109,0.029,0.008,0.2376,0.193885,CWH,-0.48089809283299456,2.5281063996289396e-11,FALSE,FALSE,0.6412563848343643,-0.21707095725457104
PKO,KILTUISH RIVER,910-593300-00000-00000-0000-0000-000-000-000-000-000-000,6,PKO-13,1969,0,128.288,4.854277736460096,300,5.703782474656201,32.3364658004053,350.695686020824,0.10778821933468433,-2.227586909088627,0.0109,0.029,0.008,0.2376,0.193885,CWH,0.09673401232408343,2.5281063996289396e-11,FALSE,FALSE,0.6412563848343643,-0.21707095725457104
PKO,KILTUISH RIVER,910-593300-00000-00000-0000-0000-000-000-000-000-000-000,6,PKO-13,1971,0,128.288,4.854277736460096,25,3.2188758248682006,86.3800396818846,32.3364658004053,3.455201587275384,1.2398808020516603,0.0109,0.029,0.008,0.2376,0.193885,CWH,-0.34080392906905344,2.5281063996289396e-11,FALSE,FALSE,0.6412563848343643,-0.21707095725457104
PKO,KILTUISH RIVER,910-593300-00000-00000-0000-0000-000-000-000-000-000-000,6,PKO-13,1973,0,128.288,4.854277736460096,50,3.912023005428146,574.172795855997,86.3800396818846,11.48345591711994,2.4409073836652,0.0097,0.0259,0.008,0.2376,0.193885,CWH,-0.20355231452664888,2.5281063996289396e-11,FALSE,FALSE,0.6412563848343643,-0.25786411144085175
PKO,KILTUISH RIVER,910-593300-00000-00000-0000-0000-000-000-000-000-000-000,6,PKO-13,1975,0,128.288,4.854277736460096,400,5.991464547107982,860.798868659622,574.172795855997,2.151997171649055,0.7663963280092018,0.0097,0.0258,0.008,0.2376,0.193885,CWH,1.2286162579398736,2.5281063996289396e-11,FALSE,FALSE,0.6412563848343643,-0.2591800196404092
PKO,KILTUISH RIVER,910-593300-00000-00000-0000-0000-000-000-000-000-000-000,6,PKO-13,1977,0,128.288,4.854277736460096,500,6.214608098422191,84.1185140495449,860.798868659622,0.1682370280990898,-1.7823814123948687,0.0086,0.023,0.008,0.2376,0.193885,CWH,0.9724829797884954,2.5281063996289396e-11,FALSE,FALSE,0.6412563848343643,-0.29602544922801755
PKO,KILTUISH RIVER,910-593300-00000-00000-0000-0000-000-000-000-000-000-000,6,PKO-13,1979,0,128.288,4.854277736460096,50,3.912023005428146,1753.25118077522,84.1185140495449,35.0650236155044,3.557204155466599,0.0086,0.023,0.008,0.2376,0.193885,CWH,-1.19975713829789,2.5281063996289396e-11,FALSE,FALSE,0.6412563848343643,-0.29602544922801755
PKO,KILTUISH RIVER,910-593300-00000-00000-0000-0000-000-000-000-000-000-000,6,PKO-13,1981,0,128.288,4.854277736460096,600,6.396929655216146,429.692586150291,1753.25118077522,0.716154310250485,-0.33385961813235154,0.0086,0.023,0.008,0.2376,0.193885,CWH,-0.22613906119882837,2.5281063996289396e-11,FALSE,FALSE,0.6412563848343643,-0.29602544922801755
PKO,KILTUISH RIVER,910-593300-00000-00000-0000-0000-000-000-000-000-000-000,6,PKO-13,1983,0,128.288,4.854277736460096,250,5.521460917862246,2729.66271075576,429.692586150291,10.918650843023041,2.390472413510217,0.0084,0.0223,0.008,0.2376,0.193885,CWH,0.10267616261581472,2.5281063996289396e-11,FALSE,FALSE,0.6412563848343643,-0.30523680662491964