Species,River,WATERSHED_CDE,DFO,CU,BroodYear,hararea_m2_3005,area_km2,ln_area_km2,Spawners,logS,Recruits,Returns,recruitPerSpawner,ln_RS,ECA_age_proxy,ECA_age_proxy_forested_only,lake_cover_pct,var_eaubc_KFACTOR,var_eaubc_MELTONS_R,vri_bec_zone,npgo,portion_reporting_vri_cover1_missing,hatchery_enhancement,year_of_enhacement,ln_area_km2_std,ECA_age_proxy_forested_only_std
PKO,NAMELESS CREEK,910-481400-21000-00000-0000-0000-000-000-000-000-000-000,7,PKO-12,1969,0,4.623,1.5310438450060884,1000,6.907755278982137,34846.3703052658,1793.16142922318,34.8463703052658,3.5509489798530987,0.0022,0.0022,0,0.24636,0.290984,CWH,0.09673401232408343,0,FALSE,FALSE,-1.6876815769962243,-0.5697343547359655
PKO,NAMELESS CREEK,910-481400-21000-00000-0000-0000-000-000-000-000-000-000,7,PKO-12,1971,0,4.623,1.5310438450060884,25000,10.126631103850338,3794.48103396102,34846.3703052658,0.1517792413584408,-1.8853281733161291,0.0022,0.0022,0,0.24636,0.290984,CWH,-0.34080392906905344,0,FALSE,FALSE,-1.6876815769962243,-0.5697343547359655
PKO,NAMELESS CREEK,910-481400-21000-00000-0000-0000-000-000-000-000-000-000,7,PKO-12,1973,0,4.623,1.5310438450060884,2000,7.600902459542082,920.180952234658,3794.48103396102,0.460090476117329,-0.7763321216278052,0.0022,0.0022,0,0.24636,0.290984,CWH,-0.20355231452664888,0,FALSE,FALSE,-1.6876815769962243,-0.5697343547359655
PKO,NAMELESS CREEK,910-481400-21000-00000-0000-0000-000-000-000-000-000-000,7,PKO-12,1975,0,4.623,1.5310438450060884,600,6.396929655216146,33283.6061247576,920.180952234658,55.472676874596,4.015890590962901,0.0022,0.0022,0,0.24636,0.290984,CWH,1.2286162579398736,0,FALSE,FALSE,-1.6876815769962243,-0.5697343547359655
PKO,NAMELESS CREEK,910-481400-21000-00000-0000-0000-000-000-000-000-000-000,7,PKO-12,1977,0,4.623,1.5310438450060884,17000,9.740968623038354,6054.73031179182,33283.6061247576,0.3561606065759894,-1.0323735077967067,0.0022,0.0022,0,0.24636,0.290984,CWH,0.9724829797884954,0,FALSE,FALSE,-1.6876815769962243,-0.5697343547359655
PKO,NAMELESS CREEK,910-481400-21000-00000-0000-0000-000-000-000-000-000-000,7,PKO-12,1979,0,4.623,1.5310438450060884,4000,8.294049640102028,10347.032346131,6054.73031179182,2.58675808653275,0.9504053876342113,4e-4,4e-4,0,0.24636,0.290984,CWH,-1.19975713829789,0,FALSE,FALSE,-1.6876815769962243,-0.5934207023279994
PKO,NAMELESS CREEK,910-481400-21000-00000-0000-0000-000-000-000-000-000-000,7,PKO-12,1981,0,4.623,1.5310438450060884,5000,8.517193191416238,30191.4104628104,10347.032346131,6.0382820925620795,1.7981195497299383,4e-4,4e-4,0,0.24636,0.290984,CWH,-0.22613906119882837,0,FALSE,FALSE,-1.6876815769962243,-0.5934207023279994
PKO,NAMELESS CREEK,910-481400-21000-00000-0000-0000-000-000-000-000-000-000,7,PKO-12,1983,0,4.623,1.5310438450060884,20000,9.903487552536127,11627.2494325042,30191.4104628104,0.58136247162521,-0.5423808412289444,4e-4,4e-4,0,0.24636,0.290984,CWH,0.10267616261581472,0,FALSE,FALSE,-1.6876815769962243,-0.5934207023279994
PKO,NAMELESS CREEK,910-481400-21000-00000-0000-0000-000-000-000-000-000-000,7,PKO-12,1985,0,4.623,1.5310438450060884,7200,8.881836305004146,1133.02790333379,11627.2494325042,0.1573649865741375,-1.8491874164472821,4e-4,4e-4,0,0.24636,0.290984,CWH,-0.9758993397997916,0,FALSE,FALSE,-1.6876815769962243,-0.5934207023279994
PKO,NAMELESS CREEK,910-481400-21000-00000-0000-0000-000-000-000-000-000-000,7,PKO-12,1987,0,4.623,1.5310438450060884,625,6.437751649736401,119.233934988047,1133.02790333379,0.1907742959808752,-1.656664246124479,4e-4,4e-4,0,0.24636,0.290984,CWH,0.8862048812919091,0,FALSE,FALSE,-1.6876815769962243,-0.5934207023279994
PKO,NAMELESS CREEK,910-481400-21000-00000-0000-0000-000-000-000-000-000-000,7,PKO-12,1989,0,4.623,1.5310438450060884,100,4.605170185988092,638.29546039843,119.233934988047,6.3829546039843,1.8536310942298768,0,0,0,0.24636,0.290984,CWH,0.15947767939610902,0,FALSE,FALSE,-1.6876815769962243,-0.5986843351262291
PKO,NAMELESS CREEK,910-481400-21000-00000-0000-0000-000-000-000-000-000-000,7,PKO-12,1991,0,4.623,1.5310438450060884,450,6.1092475827643655,25.0240310775244,638.29546039843,0.055608957950054216,-2.8894109764934925,0,0,0,0.24636,0.290984,CWH,-0.18487911555035336,0,FALSE,FALSE,-1.6876815769962243,-0.5986843351262291
PKO,SALMON BAY CREEK,910-483900-00000-00000-0000-0000-000-000-000-000-000-000,7,PKO-12,1955,0,9.564,2.2580060495960783,20000,9.903487552536127,2989.42819807803,40825.2730142673,0.1494714099039015,-1.9006501425407265,0.0044,0.0045,0.002,0.25548,0.242807,CWH,-0.07106879047729574,0,FALSE,FALSE,-1.178223040406455,-0.5394684661461443
PKO,SALMON BAY CREEK,910-483900-00000-00000-0000-0000-000-000-000-000-000-000,7,PKO-12,1957,0,9.564,2.2580060495960783,1500,7.313220387090301,1489.50625268807,2989.42819807803,0.9930041684587133,-0.007020417102156741,0.0044,0.0045,0.002,0.25548,0.242807,CWH,-0.3276691034772351,0,FALSE,FALSE,-1.178223040406455,-0.5394684661461443
PKO,SALMON BAY CREEK,910-483900-00000-00000-0000-0000-000-000-000-000-000-000,7,PKO-12,1959,0,9.564,2.2580060495960783,1000,6.907755278982137,2294.00325091918,1489.50625268807,2.29400325091918,0.8302984358461836,0.0015,0.0015,0.002,0.25548,0.242807,CWH,0.7824977620566573,0,FALSE,FALSE,-1.178223040406455,-0.5789457121328675
PKO,SALMON BAY CREEK,910-483900-00000-00000-0000-0000-000-000-000-000-000-000,7,PKO-12,1961,0,9.564,2.2580060495960783,1000,6.907755278982137,2165.52902133447,2294.00325091918,2.16552902133447,0.772664683261094,0.0015,0.0015,0.002,0.25548,0.242807,CWH,0.00583928468743269,0,FALSE,FALSE,-1.178223040406455,-0.5789457121328675
PKO,SALMON BAY CREEK,910-483900-00000-00000-0000-0000-000-000-000-000-000-000,7,PKO-12,1963,0,9.564,2.2580060495960783,1200,7.090076835776092,1815.21387968102,2165.52902133447,1.5126782330675166,0.4138817440249059,0.0015,0.0015,0.002,0.25548,0.242807,CWH,0.5797944041154652,0,FALSE,FALSE,-1.178223040406455,-0.5789457121328675
PKO,SALMON BAY CREEK,910-483900-00000-00000-0000-0000-000-000-000-000-000-000,7,PKO-12,1965,0,9.564,2.2580060495960783,750,6.620073206530356,8683.02546928475,1815.21387968102,11.577367292379668,2.449052096761591,0.0015,0.0015,0.002,0.25548,0.242807,CWH,-0.7093794641235007,0,FALSE,FALSE,-1.178223040406455,-0.5789457121328675
PKO,SALMON BAY CREEK,910-483900-00000-00000-0000-0000-000-000-000-000-000-000,7,PKO-12,1967,0,9.564,2.2580060495960783,4000,8.294049640102028,14345.2914337854,8683.02546928475,3.58632285844635,1.277127404160426,0.0015,0.0015,0.002,0.25548,0.242807,CWH,-0.48089809283299456,0,FALSE,FALSE,-1.178223040406455,-0.5789457121328675
PKO,SALMON BAY CREEK,910-483900-00000-00000-0000-0000-000-000-000-000-000-000,7,PKO-12,1969,0,9.564,2.2580060495960783,8000,8.987196820661973,20907.8221831595,14345.2914337854,2.6134777728949374,0.9606818144072731,0.0015,0.0015,0.002,0.25548,0.242807,CWH,0.09673401232408343,0,FALSE,FALSE,-1.178223040406455,-0.5789457121328675
PKO,SALMON BAY CREEK,910-483900-00000-00000-0000-0000-000-000-000-000-000-000,7,PKO-12,1971,0,9.564,2.2580060495960783,15000,9.615805480084347,9486.20258490255,20907.8221831595,0.6324135056601701,-0.45821181767598307,0.0015,0.0015,0.002,0.25548,0.242807,CWH,-0.34080392906905344,0,FALSE,FALSE,-1.178223040406455,-0.5789457121328675
PKO,SALMON BAY CREEK,910-483900-00000-00000-0000-0000-000-000-000-000-000-000,7,PKO-12,1973,0,9.564,2.2580060495960783,5000,8.517193191416238,4600.90476117329,9486.20258490255,0.9201809522346581,-0.08318494106785979,0.0015,0.0015,0.002,0.25548,0.242807,CWH,-0.20355231452664888,0,FALSE,FALSE,-1.178223040406455,-0.5789457121328675
PKO,SALMON BAY CREEK,910-483900-00000-00000-0000-0000-000-000-000-000-000-000,7,PKO-12,1975,0,9.564,2.2580060495960783,3000,8.006367567650246,29367.887757139,4600.90476117329,9.789295919046333,2.2812895355747926,0.0015,0.0015,0.002,0.25548,0.242807,CWH,1.2286162579398736,0,FALSE,FALSE,-1.178223040406455,-0.5789457121328675
PKO,SALMON BAY CREEK,910-483900-00000-00000-0000-0000-000-000-000-000-000-000,7,PKO-12,1977,32120.0239298277,9.564,2.2580060495960783,15000,9.615805480084347,33301.016714855,29367.887757139,2.2200677809903335,0.7975377273957245,0.0048,0.0049,0.002,0.25548,0.242807,CWH,0.9724829797884954,0,FALSE,FALSE,-1.178223040406455,-0.5342048333479145
PKO,SALMON BAY CREEK,910-483900-00000-00000-0000-0000-000-000-000-000-000-000,7,PKO-12,1979,0,9.564,2.2580060495960783,22000,9.998797732340453,25246.7589245596,33301.016714855,1.1475799511163454,0.13765533470089492,0.0037,0.0037,0.002,0.25548,0.242807,CWH,-1.19975713829789,0,FALSE,FALSE,-1.178223040406455,-0.5499957317426037
PKO,SALMON BAY CREEK,910-483900-00000-00000-0000-0000-000-000-000-000-000-000,7,PKO-12,1981,0,9.564,2.2580060495960783,12200,9.409191230721348,27172.2694165293,25246.7589245596,2.227235198076172,0.8007609947669992,0.0037,0.0037,0.002,0.25548,0.242807,CWH,-0.22613906119882837,0,FALSE,FALSE,-1.178223040406455,-0.5499957317426037
PKO,SALMON BAY CREEK,910-483900-00000-00000-0000-0000-000-000-000-000-000-000,7,PKO-12,1983,0,9.564,2.2580060495960783,18000,9.798127036878302,9204.90580073252,27172.2694165293,0.5113836555962511,-0.6706351767526202,0.0037,0.0037,0.002,0.25548,0.242807,CWH,0.10267616261581472,0,FALSE,FALSE,-1.178223040406455,-0.5499957317426037
PKO,SALMON BAY CREEK,910-483900-00000-00000-0000-0000-000-000-000-000-000-000,7,PKO-12,1985,0,9.564,2.2580060495960783,5700,8.648221453822641,1577.17484144063,9204.90580073252,0.2766973406036193,-1.2848310033535528,0.0037,0.0037,0.002,0.25548,0.242807,CWH,-0.9758993397997916,0,FALSE,FALSE,-1.178223040406455,-0.5499957317426037
PKO,SALMON BAY CREEK,910-483900-00000-00000-0000-0000-000-000-000-000-000-000,7,PKO-12,1987,0,9.564,2.2580060495960783,870,6.76849321164863,715.403609928285,1577.17484144063,0.822302999917569,-0.19564633880864746,0.0037,0.0037,0.002,0.25548,0.242807,CWH,0.8862048812919091,0,FALSE,FALSE,-1.178223040406455,-0.5499957317426037
PKO,SALMON BAY CREEK,910-483900-00000-00000-0000-0000-000-000-000-000-000-000,7,PKO-12,1989,0,9.564,2.2580060495960783,600,6.396929655216146,815.59975495355,715.403609928285,1.3593329249225834,0.3069940830348075,0.0025,0.0026,0.002,0.25548,0.242807,CWH,0.15947767939610902,0,FALSE,FALSE,-1.178223040406455,-0.5644707219377357
PKO,SALMON BAY CREEK,910-483900-00000-00000-0000-0000-000-000-000-000-000-000,7,PKO-12,1991,0,9.564,2.2580060495960783,575,6.354370040797351,375.360466162866,815.59975495355,0.6528008107180278,-0.42648323342426747,0.0025,0.0026,0.002,0.25548,0.242807,CWH,-0.18487911555035336,0,FALSE,FALSE,-1.178223040406455,-0.5644707219377357
PKO,SALMON BAY CREEK,910-483900-00000-00000-0000-0000-000-000-000-000-000-000,7,PKO-12,1993,0,9.564,2.2580060495960783,300,5.703782474656201,475.209142721673,375.360466162866,1.58403047573891,0.45997253294131324,0.0025,0.0026,0.002,0.25548,0.242807,CWH,-1.7567819796155162,0,FALSE,FALSE,-1.178223040406455,-0.5644707219377357
PKO,SALMON BAY CREEK,910-483900-00000-00000-0000-0000-000-000-000-000-000-000,7,PKO-12,1995,0,9.564,2.2580060495960783,400,5.991464547107982,457.526772302042,475.209142721673,1.143816930755105,0.13437085458843,0.0025,0.0026,0.002,0.25548,0.242807,CWH,-0.5672147431639023,0,FALSE,FALSE,-1.178223040406455,-0.5644707219377357
PKO,SALMON BAY CREEK,910-483900-00000-00000-0000-0000-000-000-000-000-000-000,7,PKO-12,1997,0,9.564,2.2580060495960783,400,5.991464547107982,1131.04228420468,457.526772302042,2.8276057105117003,1.039430314873982,0.0025,0.0026,0.002,0.25548,0.242807,CWH,0.8907774948170872,0,FALSE,FALSE,-1.178223040406455,-0.5644707219377357
PKO,SALMON BAY CREEK,910-483900-00000-00000-0000-0000-000-000-000-000-000-000,7,PKO-12,1999,0,9.564,2.2580060495960783,1000,6.907755278982137,767.110848566003,1131.04228420468,0.767110848566003,-0.26512396580688535,8e-4,9e-4,0.002,0.25548,0.242807,CWH,1.6302835492491898,0,FALSE,FALSE,-1.178223040406455,-0.5868411613302122
PKO,SALMON BAY CREEK,910-483900-00000-00000-0000-0000-000-000-000-000-000-000,7,PKO-12,2001,0,9.564,2.2580060495960783,600,6.396929655216146,7493.36636629033,767.110848566003,12.488943943817217,2.5248437684264213,8e-4,9e-4,0.002,0.25548,0.242807,CWH,1.9190067210816288,0,FALSE,FALSE,-1.178223040406455,-0.5868411613302122
PKO,SALMON BAY CREEK,910-483900-00000-00000-0000-0000-000-000-000-000-000-000,7,PKO-12,2003,0,9.564,2.2580060495960783,6000,8.699514748210191,22481.5351564242,7493.36636629033,3.7469225260707,1.3209348433423092,8e-4,9e-4,0.002,0.25548,0.242807,CWH,0.41101277747559006,0,FALSE,FALSE,-1.178223040406455,-0.5868411613302122
PKO,SALMON BAY CREEK,910-483900-00000-00000-0000-0000-000-000-000-000-000-000,7,PKO-12,2005,0,9.564,2.2580060495960783,18000,9.798127036878302,47769.0997376043,22481.5351564242,2.65383887431135,0.9760072235589008,8e-4,9e-4,0.002,0.25548,0.242807,CWH,-0.8145696192436794,0,FALSE,FALSE,-1.178223040406455,-0.5868411613302122
PKO,SALMON BAY CREEK,910-483900-00000-00000-0000-0000-000-000-000-000-000-000,7,PKO-12,2007,181988.280848172,9.564,2.2580060495960783,41000,10.621327345686446,40732.9221791738,47769.0997376043,0.9934859068091171,-0.006535402486835831,0.0199,0.0202,0.002,0.25548,0.242807,CWH,0.8768892458318005,0,FALSE,FALSE,-1.178223040406455,-0.33287087881562594
PKO,SALMON BAY CREEK,910-483900-00000-00000-0000-0000-000-000-000-000-000-000,7,PKO-12,2009,0,9.564,2.2580060495960783,35000,10.46310334047155,6838.61573410495,40732.9221791738,0.19538902097442715,-1.6327627283909882,0.0199,0.0202,0.002,0.25548,0.242807,CWH,1.604652193542091,0,FALSE,FALSE,-1.178223040406455,-0.33287087881562594
PKO,SALMON BAY CREEK,910-483900-00000-00000-0000-0000-000-000-000-000-000-000,7,PKO-12,2011,0,9.564,2.2580060495960783,6000,8.699514748210191,29619.0223748901,6838.61573410495,4.93650372914835,1.596657333492631,0.0199,0.0202,0.002,0.25548,0.242807,CWH,0.7408851700104637,0,FALSE,FALSE,-1.178223040406455,-0.33287087881562594
PKO,SALMON BAY CREEK,910-483900-00000-00000-0000-0000-000-000-000-000-000-000,7,PKO-12,2013,0,9.564,2.2580060495960783,24500,10.106428396532818,1140.43523768847,29619.0223748901,0.046548377048508977,-3.067263140560533,0.0199,0.0202,0.002,0.25548,0.242807,CWH,-0.5528640906240193,0,FALSE,FALSE,-1.178223040406455,-0.33287087881562594
PKO,HIRD POINT CREEK,910-487400-00000-00000-0000-0000-000-000-000-000-000-000,7,PKO-12,1955,0,16.316,2.792146221455312,400,5.991464547107982,398.590426410404,816.505460285347,0.99647606602601,-0.003530157654845213,0.0035,0.0036,0.013,0.27071,0.293268,CWH,-0.07106879047729574,0,FALSE,FALSE,-0.8038950924456786,-0.5513116399421613
PKO,HIRD POINT CREEK,910-487400-00000-00000-0000-0000-000-000-000-000-000-000,7,PKO-12,1961,0,16.316,2.792146221455312,25,3.2188758248682006,45.1151879444682,57.3500812729795,1.804607517778728,0.590343126467141,0.0068,0.0071,0.013,0.27071,0.293268,CWH,0.00583928468743269,0,FALSE,FALSE,-0.8038950924456786,-0.5052548529576507
PKO,HIRD POINT CREEK,910-487400-00000-00000-0000-0000-000-000-000-000-000-000,7,PKO-12,1963,0,16.316,2.792146221455312,25,3.2188758248682006,145.217110374482,45.1151879444682,5.80868441497928,1.759354110624544,0.0068,0.0071,0.013,0.27071,0.293268,CWH,0.5797944041154652,0,FALSE,FALSE,-0.8038950924456786,-0.5052548529576507
PKO,HIRD POINT CREEK,910-487400-00000-00000-0000-0000-000-000-000-000-000-000,7,PKO-12,1969,0,16.316,2.792146221455312,75,4.31748811353631,278.770962442126,134.487107191738,3.7169461658950134,1.3129024079966227,0.004,0.0042,0.013,0.27071,0.293268,CWH,0.09673401232408343,0,FALSE,FALSE,-0.8038950924456786,-0.5434161907448165
PKO,HIRD POINT CREEK,910-487400-00000-00000-0000-0000-000-000-000-000-000-000,7,PKO-12,1971,0,16.316,2.792146221455312,200,5.298317366548036,948.620258490255,278.770962442126,4.743101292451275,1.5566912028662816,0.004,0.0042,0.013,0.27071,0.293268,CWH,-0.34080392906905344,0,FALSE,FALSE,-0.8038950924456786,-0.5434161907448165
PKO,HIRD POINT CREEK,910-487400-00000-00000-0000-0000-000-000-000-000-000-000,7,PKO-12,1973,0,16.316,2.792146221455312,500,6.214608098422191,230.045238058665,948.620258490255,0.46009047611733,-0.7763321216278031,0.004,0.0042,0.013,0.27071,0.293268,CWH,-0.20355231452664888,0,FALSE,FALSE,-0.8038950924456786,-0.5434161907448165
PKO,HIRD POINT CREEK,910-487400-00000-00000-0000-0000-000-000-000-000-000-000,7,PKO-12,1975,0,16.316,2.792146221455312,150,5.0106352940962555,7831.43673523708,230.045238058665,52.20957823491387,3.955265969146466,0.004,0.0042,0.013,0.27071,0.293268,CWH,1.2286162579398736,0,FALSE,FALSE,-0.8038950924456786,-0.5434161907448165
PKO,HIRD POINT CREEK,910-487400-00000-00000-0000-0000-000-000-000-000-000-000,7,PKO-12,1977,0,16.316,2.792146221455312,4000,8.294049640102028,9082.09546768773,7831.43673523708,2.2705238669219323,0.8200105832477832,0.004,0.0042,0.013,0.27071,0.293268,CWH,0.9724829797884954,0,FALSE,FALSE,-0.8038950924456786,-0.5434161907448165
PKO,HIRD POINT CREEK,910-487400-00000-00000-0000-0000-000-000-000-000-000-000,7,PKO-12,1979,0,16.316,2.792146221455312,6000,8.699514748210191,13244.2014030477,9082.09546768773,2.20736690050795,0.7918003574575742,0.0012,0.0013,0.013,0.27071,0.293268,CWH,-1.19975713829789,0,FALSE,FALSE,-0.8038950924456786,-0.5815775285319824
PKO,HIRD POINT CREEK,910-487400-00000-00000-0000-0000-000-000-000-000-000-000,7,PKO-12,1981,0,16.316,2.792146221455312,6400,8.764053269347762,7547.85261570259,13244.2014030477,1.1793519712035296,0.1649651106785205,0.0012,0.0013,0.013,0.27071,0.293268,CWH,-0.22613906119882837,0,FALSE,FALSE,-0.8038950924456786,-0.5815775285319824
PKO,HIRD POINT CREEK,910-487400-00000-00000-0000-0000-000-000-000-000-000-000,7,PKO-12,1983,0,16.316,2.792146221455312,5000,8.517193191416238,1857.13011769165,7547.85261570259,0.37142602353833,-0.990405563755901,0.0012,0.0013,0.013,0.27071,0.293268,CWH,0.10267616261581472,0,FALSE,FALSE,-0.8038950924456786,-0.5815775285319824
PKO,HIRD POINT CREEK,910-487400-00000-00000-0000-0000-000-000-000-000-000-000,7,PKO-12,1985,0,16.316,2.792146221455312,1150,7.047517221357296,2229.79891376089,1857.13011769165,1.9389555771833829,0.6621494658296266,0.0012,0.0013,0.013,0.27071,0.293268,CWH,-0.9758993397997916,0,FALSE,FALSE,-0.8038950924456786,-0.5815775285319824
PKO,HIRD POINT CREEK,910-487400-00000-00000-0000-0000-000-000-000-000-000-000,7,PKO-12,1987,45017.8400816649,16.316,2.792146221455312,1230,7.114769448366463,2503.912634749,2229.79891376089,2.035701329064228,0.7108403929688878,0.004,0.0042,0.013,0.27071,0.293268,CWH,0.8862048812919091,0,FALSE,FALSE,-0.8038950924456786,-0.5434161907448165
PKO,HIRD POINT CREEK,910-487400-00000-00000-0000-0000-000-000-000-000-000-000,7,PKO-12,1989,0,16.316,2.792146221455312,2100,7.649692623711514,1418.43435644096,2503.912634749,0.6754449316385525,-0.39238364727577135,0.004,0.0042,0.013,0.27071,0.293268,CWH,0.15947767939610902,0,FALSE,FALSE,-0.8038950924456786,-0.5434161907448165
PKO,HIRD POINT CREEK,910-487400-00000-00000-0000-0000-000-000-000-000-000-000,7,PKO-12,1991,0,16.316,2.792146221455312,1000,6.907755278982137,500.480621550487,1418.43435644096,0.500480621550487,-0.6921863991572751,0.004,0.0042,0.013,0.27071,0.293268,CWH,-0.18487911555035336,0,FALSE,FALSE,-0.8038950924456786,-0.5434161907448165
PKO,HIRD POINT CREEK,910-487400-00000-00000-0000-0000-000-000-000-000-000-000,7,PKO-12,1993,0,16.316,2.792146221455312,400,5.991464547107982,118.802285680418,500.480621550487,0.297005714201045,-1.2140039006303605,0.004,0.0042,0.013,0.27071,0.293268,CWH,-1.7567819796155162,0,FALSE,FALSE,-0.8038950924456786,-0.5434161907448165
PKO,HIRD POINT CREEK,910-487400-00000-00000-0000-0000-000-000-000-000-000-000,7,PKO-12,1995,0,16.316,2.792146221455312,100,4.605170185988092,1143.8169307551,118.802285680418,11.438169307551,2.4369559475824714,0.004,0.0042,0.013,0.27071,0.293268,CWH,-0.5672147431639023,0,FALSE,FALSE,-0.8038950924456786,-0.5434161907448165
PKO,HIRD POINT CREEK,910-487400-00000-00000-0000-0000-000-000-000-000-000-000,7,PKO-12,1997,8407.3109275063,16.316,2.792146221455312,1000,6.907755278982137,622.073256312573,1143.8169307551,0.622073256312573,-0.474697417755795,0.0045,0.0047,0.013,0.27071,0.293268,CWH,0.8907774948170872,0,FALSE,FALSE,-0.8038950924456786,-0.5368366497470294