Species,River,WATERSHED_CDE,DFO,CU,BroodYear,hararea_m2_3005,area_km2,ln_area_km2,Spawners,logS,Recruits,Returns,recruitPerSpawner,ln_RS,ECA_age_proxy,ECA_age_proxy_forested_only,lake_cover_pct,var_eaubc_KFACTOR,var_eaubc_MELTONS_R,vri_bec_zone,npgo,portion_reporting_vri_cover1_missing,hatchery_enhancement,year_of_enhacement,ln_area_km2_std,ECA_age_proxy_forested_only_std
PKO,JAMES BAY CREEK,915-488000-78700-00000-0000-0000-000-000-000-000-000-000,7,PKO-13,2003,0,21.72,3.0782334950657346,35000,10.46310334047155,37304.398990984,51641.5740946695,1.0658399711709714,0.06376319362164246,2e-4,2e-4,0.018,0.09135,0.236968,CWH,0.41101277747559006,0,FALSE,FALSE,-0.6034037837775393,-0.5960525187271143
PKO,JAMES BAY CREEK,915-488000-78700-00000-0000-0000-000-000-000-000-000-000,7,PKO-13,2005,0,21.72,3.0782334950657346,25000,10.126631103850338,15316.1341804876,37304.398990984,0.612645367219504,-0.4899690304866445,2e-4,2e-4,0.018,0.09135,0.236968,CWH,-0.8145696192436794,0,FALSE,FALSE,-0.6034037837775393,-0.5960525187271143
PKO,JAMES BAY CREEK,915-488000-78700-00000-0000-0000-000-000-000-000-000-000,7,PKO-13,2007,0,21.72,3.0782334950657346,12300,9.417354541360508,29667.522958232,15316.1341804876,2.4119937364416257,0.8804536820297371,2e-4,2e-4,0.018,0.09135,0.236968,CWH,0.8768892458318005,0,FALSE,FALSE,-0.6034037837775393,-0.5960525187271143
PKO,JAMES BAY CREEK,915-488000-78700-00000-0000-0000-000-000-000-000-000-000,7,PKO-13,2009,0,21.72,3.0782334950657346,23000,10.043249494911286,16623.8750706859,29667.522958232,0.7227771769863435,-0.3246542965977548,1e-4,1e-4,0.018,0.09135,0.236968,CWH,1.604652193542091,0,FALSE,FALSE,-0.6034037837775393,-0.5973684269266717
PKO,CANYON CREEK,915-488000-87500-00000-0000-0000-000-000-000-000-000-000,7,PKO-12,1955,0,10.839,2.383150740833613,75,4.31748811353631,797.180852820808,153.094773803503,10.629078037610773,2.3635934564767718,0.0097,0.0103,0.054,0.1534,0.253911,CWH,-0.07106879047729574,0,FALSE,FALSE,-1.0905210514209183,-0.4631457905718127
PKO,CANYON CREEK,915-488000-87500-00000-0000-0000-000-000-000-000-000-000,7,PKO-12,1957,0,10.839,2.383150740833613,400,5.991464547107982,111.712968951606,797.180852820808,0.279282422379015,-1.2755317425656572,0.0097,0.0103,0.054,0.1534,0.253911,CWH,-0.3276691034772351,0,FALSE,FALSE,-1.0905210514209183,-0.4631457905718127
PKO,CANYON CREEK,915-488000-87500-00000-0000-0000-000-000-000-000-000-000,7,PKO-12,1959,0,10.839,2.383150740833613,75,4.31748811353631,172.050243818938,111.712968951606,2.294003250919173,0.8302984358461805,0.0075,0.0079,0.054,0.1534,0.253911,CWH,0.7824977620566573,0,FALSE,FALSE,-1.0905210514209183,-0.49472758736119127
PKO,CANYON CREEK,915-488000-87500-00000-0000-0000-000-000-000-000-000-000,7,PKO-12,1961,0,10.839,2.383150740833613,75,4.31748811353631,135.345563833405,172.050243818938,1.8046075177787335,0.5903431264671442,0.0075,0.0079,0.054,0.1534,0.253911,CWH,0.00583928468743269,0,FALSE,FALSE,-1.0905210514209183,-0.49472758736119127
PKO,CANYON CREEK,915-488000-87500-00000-0000-0000-000-000-000-000-000-000,7,PKO-12,1979,0,10.839,2.383150740833613,10000,9.210340371976184,20694.064692262,15136.8257794795,2.0694064692262,0.7272618363200015,0.0312,0.0329,0.054,0.1534,0.253911,CWH,-1.19975713829789,0,FALSE,FALSE,-1.0905210514209183,-0.16575053747183086
PKO,CANYON CREEK,915-488000-87500-00000-0000-0000-000-000-000-000-000-000,7,PKO-12,1981,0,10.839,2.383150740833613,10000,9.210340371976184,15095.7052314052,20694.064692262,1.5095705231405199,0.4118251886100476,0.0312,0.0329,0.054,0.1534,0.253911,CWH,-0.22613906119882837,0,FALSE,FALSE,-1.0905210514209183,-0.16575053747183086
PKO,CANYON CREEK,915-488000-87500-00000-0000-0000-000-000-000-000-000-000,7,PKO-12,1983,0,10.839,2.383150740833613,10000,9.210340371976184,5086.9216267206,15095.7052314052,0.50869216267206,-0.6759122338534647,0.0312,0.0329,0.054,0.1534,0.253911,CWH,0.10267616261581472,0,FALSE,FALSE,-1.0905210514209183,-0.16575053747183086
PKO,CANYON CREEK,915-488000-87500-00000-0000-0000-000-000-000-000-000-000,7,PKO-12,1985,0,10.839,2.383150740833613,3150,8.055157731819678,1042.38567106708,5086.9216267206,0.3309160860530413,-1.1058904522018718,0.0312,0.0329,0.054,0.1534,0.253911,CWH,-0.9758993397997916,0,FALSE,FALSE,-1.0905210514209183,-0.16575053747183086
PKO,CANYON CREEK,915-488000-87500-00000-0000-0000-000-000-000-000-000-000,7,PKO-12,1987,0,10.839,2.383150740833613,575,6.354370040797351,1788.50902482071,1042.38567106708,3.110450477949061,1.1347675639167851,0.0312,0.0329,0.054,0.1534,0.253911,CWH,0.8862048812919091,0,FALSE,FALSE,-1.0905210514209183,-0.16575053747183086
PKO,CANYON CREEK,915-488000-87500-00000-0000-0000-000-000-000-000-000-000,7,PKO-12,1989,0,10.839,2.383150740833613,1500,7.313220387090301,283.686871288191,1788.50902482071,0.18912458085879402,-1.6653493230886622,0.0215,0.0227,0.054,0.1534,0.253911,CWH,0.15947767939610902,0,FALSE,FALSE,-1.0905210514209183,-0.29997317382668987
PKO,CANYON CREEK,915-488000-87500-00000-0000-0000-000-000-000-000-000-000,7,PKO-12,1991,0,10.839,2.383150740833613,200,5.298317366548036,187.680233081433,283.686871288191,0.9384011654071649,-0.06357773973489902,0.0215,0.0227,0.054,0.1534,0.253911,CWH,-0.18487911555035336,0,FALSE,FALSE,-1.0905210514209183,-0.29997317382668987
PKO,CANYON CREEK,915-488000-87500-00000-0000-0000-000-000-000-000-000-000,7,PKO-12,1997,20132.5551961977,10.839,2.383150740833613,200,5.298317366548036,339.312685261404,228.763386151021,1.69656342630702,0.5286046911079914,0.0234,0.0247,0.054,0.1534,0.253911,CWH,0.8907774948170872,0,FALSE,FALSE,-1.0905210514209183,-0.27365500983554103
PKO,CANYON CREEK,915-488000-87500-00000-0000-0000-000-000-000-000-000-000,7,PKO-12,2003,0,10.839,2.383150740833613,2000,7.600902459542082,1061.62804905337,2497.78878876344,0.530814024526685,-0.6333435553835159,0.0092,0.0097,0.054,0.1534,0.253911,CWH,0.41101277747559006,0,FALSE,FALSE,-1.0905210514209183,-0.4710412397691573
PKO,CANYON CREEK,915-488000-87500-00000-0000-0000-000-000-000-000-000-000,7,PKO-12,2005,336135.833885292,10.839,2.383150740833613,850,6.745236349484363,2446.70998656022,1061.62804905337,2.8784823371296704,1.0572631889779098,0.0435,0.0459,0.054,0.1534,0.253911,CWH,-0.8145696192436794,0,FALSE,FALSE,-1.0905210514209183,0.005317528470636626
PKO,CANYON CREEK,915-488000-87500-00000-0000-0000-000-000-000-000-000-000,7,PKO-12,2007,35943.7030955113,10.839,2.383150740833613,2100,7.649692623711514,4073.29221791738,2446.70998656022,1.9396629609130382,0.662514226494049,0.1088,0.115,0.054,0.1534,0.253911,CWH,0.8768892458318005,0,FALSE,FALSE,-1.0905210514209183,0.9146100943648288
PKO,DUTHIE CREEK,915-488000-34300-00000-0000-0000-000-000-000-000-000-000,7,PKO-13,1955,0,10.939,2.3923343851376537,75,4.31748811353631,1328.86563274022,143.515992521883,17.718208436536266,2.8745928360326354,0.01,0.0105,0,0.09,0.153153,CWH,-0.07106879047729574,0,FALSE,FALSE,-1.084085110242468,-0.46051397417269774
PKO,DUTHIE CREEK,915-488000-34300-00000-0000-0000-000-000-000-000-000-000,7,PKO-13,1957,62431.6855390487,10.939,2.3923343851376537,750,6.620073206530356,34.3828294086374,1328.86563274022,0.045843772544849865,-3.0825159118631364,0.0157,0.0165,0,0.09,0.153153,CWH,-0.3276691034772351,0,FALSE,FALSE,-1.084085110242468,-0.38155948219925123
PKO,DUTHIE CREEK,915-488000-34300-00000-0000-0000-000-000-000-000-000-000,7,PKO-13,1959,0,10.939,2.3923343851376537,25,3.2188758248682006,787.732178865611,34.3828294086374,31.509287154624438,3.4502823326832113,0.0107,0.0112,0,0.09,0.153153,CWH,0.7824977620566573,0,FALSE,FALSE,-1.084085110242468,-0.45130261677579564
PKO,DUTHIE CREEK,915-488000-34300-00000-0000-0000-000-000-000-000-000-000,7,PKO-13,1961,0,10.939,2.3923343851376537,400,5.991464547107982,6867.96702883687,787.732178865611,17.169917572092174,2.843158874204336,0.0107,0.0112,0,0.09,0.153153,CWH,0.00583928468743269,0,FALSE,FALSE,-1.084085110242468,-0.45130261677579564
PKO,DUTHIE CREEK,915-488000-34300-00000-0000-0000-000-000-000-000-000-000,7,PKO-13,1967,0,10.939,2.3923343851376537,1500,7.313220387090301,1753.47843010412,2182.43419966344,1.1689856200694133,0.15613638136158955,0.0107,0.0112,0,0.09,0.153153,CWH,-0.48089809283299456,0,FALSE,FALSE,-1.084085110242468,-0.45130261677579564
PKO,DUTHIE CREEK,915-488000-34300-00000-0000-0000-000-000-000-000-000-000,7,PKO-13,1969,0,10.939,2.3923343851376537,1500,7.313220387090301,7760.75179209728,1753.47843010412,5.1738345280648534,1.643614101819265,0.0071,0.0074,0,0.09,0.153153,CWH,0.09673401232408343,0,FALSE,FALSE,-1.084085110242468,-0.5013071283589785
PKO,DUTHIE CREEK,915-488000-34300-00000-0000-0000-000-000-000-000-000-000,7,PKO-13,1971,0,10.939,2.3923343851376537,6000,8.699514748210191,863.800396818846,7760.75179209728,0.143966732803141,-1.9381730282962852,0.0071,0.0074,0,0.09,0.153153,CWH,-0.34080392906905344,0,FALSE,FALSE,-1.084085110242468,-0.5013071283589785
PKO,DUTHIE CREEK,915-488000-34300-00000-0000-0000-000-000-000-000-000-000,7,PKO-13,1973,0,10.939,2.3923343851376537,500,6.214608098422191,143.543198963999,863.800396818846,0.287086397927998,-1.247972070448738,0.0113,0.0119,0,0.09,0.153153,CWH,-0.20355231452664888,0,FALSE,FALSE,-1.084085110242468,-0.4420912593788936
PKO,DUTHIE CREEK,915-488000-34300-00000-0000-0000-000-000-000-000-000-000,7,PKO-13,1975,0,10.939,2.3923343851376537,100,4.605170185988092,430.399434329811,143.543198963999,4.30399434329811,1.459543508569147,0.0113,0.0119,0,0.09,0.153153,CWH,1.2286162579398736,0,FALSE,FALSE,-1.084085110242468,-0.4420912593788936
PKO,DUTHIE CREEK,915-488000-34300-00000-0000-0000-000-000-000-000-000-000,7,PKO-13,1977,0,10.939,2.3923343851376537,250,5.521460917862246,1219.7184537184,430.399434329811,4.8788738148736,1.5849144175916043,0.0113,0.0119,0,0.09,0.153153,CWH,0.9724829797884954,0,FALSE,FALSE,-1.084085110242468,-0.4420912593788936
PKO,DUTHIE CREEK,915-488000-34300-00000-0000-0000-000-000-000-000-000-000,7,PKO-13,1979,0,10.939,2.3923343851376537,725,6.586171654854675,20454.5971090443,1219.7184537184,28.213237391785245,3.339791278861378,0.0069,0.0073,0,0.09,0.153153,CWH,-1.19975713829789,0,FALSE,FALSE,-1.084085110242468,-0.5026230365585359
PKO,DUTHIE CREEK,915-488000-34300-00000-0000-0000-000-000-000-000-000-000,7,PKO-13,1981,0,10.939,2.3923343851376537,7000,8.85366542803745,11172.0072399076,20454.5971090443,1.5960010342725142,0.46750114706782947,0.0069,0.0073,0,0.09,0.153153,CWH,-0.22613906119882837,0,FALSE,FALSE,-1.084085110242468,-0.5026230365585359
PKO,DUTHIE CREEK,915-488000-34300-00000-0000-0000-000-000-000-000-000-000,7,PKO-13,1983,0,10.939,2.3923343851376537,6500,8.779557455883728,7279.10056201535,11172.0072399076,1.1198616249254385,0.1132051285004597,0.0059,0.0062,0,0.09,0.153153,CWH,0.10267616261581472,0,FALSE,FALSE,-1.084085110242468,-0.5170980267536678
PKO,DUTHIE CREEK,915-488000-34300-00000-0000-0000-000-000-000-000-000-000,7,PKO-13,1985,0,10.939,2.3923343851376537,4000,8.294049640102028,1028.76526229077,7279.10056201535,0.2571913155726925,-1.3579350524582017,0.0059,0.0062,0,0.09,0.153153,CWH,-0.9758993397997916,0,FALSE,FALSE,-1.084085110242468,-0.5170980267536678
PKO,DUTHIE CREEK,915-488000-34300-00000-0000-0000-000-000-000-000-000-000,7,PKO-13,1987,0,10.939,2.3923343851376537,500,6.214608098422191,3892.01655663843,1028.76526229077,7.78403311327686,2.0520745988927516,0.0059,0.0062,0,0.09,0.153153,CWH,0.8862048812919091,0,FALSE,FALSE,-1.084085110242468,-0.5170980267536678
PKO,DUTHIE CREEK,915-488000-34300-00000-0000-0000-000-000-000-000-000-000,7,PKO-13,1989,0,10.939,2.3923343851376537,3500,8.160518247477505,2635.39078353296,3892.01655663843,0.7529687952951315,-0.2837314925520387,0.0048,0.005,0,0.09,0.153153,CWH,0.15947767939610902,0,FALSE,FALSE,-1.084085110242468,-0.5328889251483571
PKO,DUTHIE CREEK,915-488000-34300-00000-0000-0000-000-000-000-000-000-000,7,PKO-13,1991,0,10.939,2.3923343851376537,2000,7.600902459542082,6955.42169010673,2635.39078353296,3.477710845053365,1.246374274193384,0.0048,0.005,0,0.09,0.153153,CWH,-0.18487911555035336,0,FALSE,FALSE,-1.084085110242468,-0.5328889251483571
PKO,DUTHIE CREEK,915-488000-34300-00000-0000-0000-000-000-000-000-000-000,7,PKO-13,1993,0,10.939,2.3923343851376537,6500,8.779557455883728,4092.78583785504,6955.42169010673,0.6296593596700062,-0.4625763047634402,0.0027,0.0028,0,0.09,0.153153,CWH,-1.7567819796155162,0,FALSE,FALSE,-1.084085110242468,-0.5618389055386208
PKO,DUTHIE CREEK,915-488000-34300-00000-0000-0000-000-000-000-000-000-000,7,PKO-13,1995,1448.33975568962,10.939,2.3923343851376537,3600,8.1886891244442,2355.20919304848,4092.78583785504,0.6542247758467999,-0.4243042926188247,0.0028,0.0029,0,0.09,0.153153,CWH,-0.5672147431639023,0,FALSE,FALSE,-1.084085110242468,-0.5605229973390633
PKO,DUTHIE CREEK,915-488000-34300-00000-0000-0000-000-000-000-000-000-000,7,PKO-13,1997,0,10.939,2.3923343851376537,2000,7.600902459542082,2186.82829450444,2355.20919304848,1.0934141472522199,0.08930504616606441,0.0028,0.0029,0,0.09,0.153153,CWH,0.8907774948170872,0,FALSE,FALSE,-1.084085110242468,-0.5605229973390633
PKO,DUTHIE CREEK,915-488000-34300-00000-0000-0000-000-000-000-000-000-000,7,PKO-13,1999,741857.117895802,10.939,2.3923343851376537,2000,7.600902459542082,2865.87560120799,2186.82829450444,1.432937800603995,0.35972674288237316,0.0693,0.0728,0,0.09,0.153153,CWH,1.6302835492491898,0,FALSE,FALSE,-1.084085110242468,0.3592968341515884
PKO,DUTHIE CREEK,915-488000-34300-00000-0000-0000-000-000-000-000-000-000,7,PKO-13,2005,0,10.939,2.3923343851376537,3150,8.055157731819678,18055.6053347211,4700.35427286399,5.731938201498761,1.7460537285921682,0.0693,0.0728,0,0.09,0.153153,CWH,-0.8145696192436794,0,FALSE,FALSE,-1.084085110242468,0.3592968341515884
PKO,DUTHIE CREEK,915-488000-34300-00000-0000-0000-000-000-000-000-000-000,7,PKO-13,2007,0,10.939,2.3923343851376537,14500,9.581903928408666,27732.6845044343,18055.6053347211,1.9125989313402965,0.6484630141860491,0.0693,0.0728,0,0.09,0.153153,CWH,0.8768892458318005,0,FALSE,FALSE,-1.084085110242468,0.3592968341515884
PKO,WINDY BAY CREEK,915-488000-41400-00000-0000-0000-000-000-000-000-000-000,7,PKO-13,1955,0,38.757,3.657311384646274,75,4.31748811353631,708.728337461451,143.515992521883,9.44971116615268,2.245984176610262,0.0067,0.0077,0.021,0.12816,0.243198,CWH,-0.07106879047729574,0,FALSE,FALSE,-0.19758327160444228,-0.49735940376030613
PKO,WINDY BAY CREEK,915-488000-41400-00000-0000-0000-000-000-000-000-000-000,7,PKO-13,1957,37114.703860312,38.757,3.657311384646274,400,5.991464547107982,34.3828294086374,708.728337461451,0.0859570735215935,-2.4539072524407626,0.0077,0.0087,0.021,0.12816,0.243198,CWH,-0.3276691034772351,0,FALSE,FALSE,-0.19758327160444228,-0.4842003217647317
PKO,WINDY BAY CREEK,915-488000-41400-00000-0000-0000-000-000-000-000-000-000,7,PKO-13,1959,0,38.757,3.657311384646274,25,3.2188758248682006,393.866089432806,34.3828294086374,15.75464357731224,2.757135152123267,0.0068,0.0078,0.021,0.12816,0.243198,CWH,0.7824977620566573,0,FALSE,FALSE,-0.19758327160444228,-0.49604349556074867
PKO,WINDY BAY CREEK,915-488000-41400-00000-0000-0000-000-000-000-000-000-000,7,PKO-13,1961,0,38.757,3.657311384646274,200,5.298317366548036,784.910517581357,393.866089432806,3.924552587906785,1.3672523543947586,0.0068,0.0078,0.021,0.12816,0.243198,CWH,0.00583928468743269,0,FALSE,FALSE,-0.19758327160444228,-0.49604349556074867
PKO,WINDY BAY CREEK,915-488000-41400-00000-0000-0000-000-000-000-000-000-000,7,PKO-13,1967,0,38.757,3.657311384646274,200,5.298317366548036,584.492810034707,290.991226621792,2.922464050173535,1.0724271132357452,0.0068,0.0078,0.021,0.12816,0.243198,CWH,-0.48089809283299456,0,FALSE,FALSE,-0.19758327160444228,-0.49604349556074867
PKO,WINDY BAY CREEK,915-488000-41400-00000-0000-0000-000-000-000-000-000-000,7,PKO-13,1969,0,38.757,3.657311384646274,500,6.214608098422191,776.075179209728,584.492810034707,1.552150358419456,0.439641297493329,0.0022,0.0025,0.021,0.12816,0.243198,CWH,0.09673401232408343,0,FALSE,FALSE,-0.19758327160444228,-0.565786630137293
PKO,WINDY BAY CREEK,915-488000-41400-00000-0000-0000-000-000-000-000-000-000,7,PKO-13,1971,0,38.757,3.657311384646274,600,6.396929655216146,2591.40119045654,776.075179209728,4.319001984094234,1.4630243533658709,0.0022,0.0025,0.021,0.12816,0.243198,CWH,-0.34080392906905344,0,FALSE,FALSE,-0.19758327160444228,-0.565786630137293
PKO,WINDY BAY CREEK,915-488000-41400-00000-0000-0000-000-000-000-000-000-000,7,PKO-13,1973,0,38.757,3.657311384646274,1500,7.313220387090301,430.629596891998,2591.40119045654,0.28708639792799867,-1.2479720704487356,0.0043,0.0049,0.021,0.12816,0.243198,CWH,-0.20355231452664888,0,FALSE,FALSE,-0.19758327160444228,-0.5342048333479145
PKO,WINDY BAY CREEK,915-488000-41400-00000-0000-0000-000-000-000-000-000-000,7,PKO-13,1975,0,38.757,3.657311384646274,300,5.703782474656201,172.159773731924,430.629596891998,0.5738659124397466,-0.5553595119731202,0.0043,0.0049,0.021,0.12816,0.243198,CWH,1.2286162579398736,0,FALSE,FALSE,-0.19758327160444228,-0.5342048333479145
PKO,WINDY BAY CREEK,915-488000-41400-00000-0000-0000-000-000-000-000-000-000,7,PKO-13,1977,0,38.757,3.657311384646274,100,4.605170185988092,168.23702809909,172.159773731924,1.6823702809909,0.5202036805991781,0.0043,0.0049,0.021,0.12816,0.243198,CWH,0.9724829797884954,0,FALSE,FALSE,-0.19758327160444228,-0.5342048333479145
PKO,WINDY BAY CREEK,915-488000-41400-00000-0000-0000-000-000-000-000-000-000,7,PKO-13,1979,0,38.757,3.657311384646274,100,4.605170185988092,3506.50236155044,168.23702809909,35.0650236155044,3.557204155466599,0.0029,0.0033,0.021,0.12816,0.243198,CWH,-1.19975713829789,0,FALSE,FALSE,-0.19758327160444228,-0.5552593645408336
PKO,WINDY BAY CREEK,915-488000-41400-00000-0000-0000-000-000-000-000-000-000,7,PKO-13,1981,0,38.757,3.657311384646274,1200,7.090076835776092,515.631103380349,3506.50236155044,0.4296925861502909,-0.8446852418983425,0.0029,0.0033,0.021,0.12816,0.243198,CWH,-0.22613906119882837,0,FALSE,FALSE,-0.19758327160444228,-0.5552593645408336
PKO,WINDY BAY CREEK,915-488000-41400-00000-0000-0000-000-000-000-000-000-000,7,PKO-13,1983,0,38.757,3.657311384646274,300,5.703782474656201,873.492067441842,515.631103380349,2.91164022480614,1.068716573527896,0.0033,0.0038,0.021,0.12816,0.243198,CWH,0.10267616261581472,0,FALSE,FALSE,-0.19758327160444228,-0.5486798235430463
PKO,WINDY BAY CREEK,915-488000-41400-00000-0000-0000-000-000-000-000-000-000,7,PKO-13,1985,0,38.757,3.657311384646274,480,6.173786103901937,308.629578687231,873.492067441842,0.6429782889317313,-0.44164432058404646,0.0033,0.0038,0.021,0.12816,0.243198,CWH,-0.9758993397997916,0,FALSE,FALSE,-0.19758327160444228,-0.5486798235430463
PKO,WINDY BAY CREEK,915-488000-41400-00000-0000-0000-000-000-000-000-000-000,7,PKO-13,1987,0,38.757,3.657311384646274,150,5.0106352940962555,556.002365234062,308.629578687231,3.706682434893747,1.3101372541633756,0.0033,0.0038,0.021,0.12816,0.243198,CWH,0.8862048812919091,0,FALSE,FALSE,-0.19758327160444228,-0.5486798235430463
PKO,WINDY BAY CREEK,915-488000-41400-00000-0000-0000-000-000-000-000-000-000,7,PKO-13,1989,0,38.757,3.657311384646274,500,6.214608098422191,283.304509229793,556.002365234062,0.566609018459586,-0.5680857749111458,0.0029,0.0033,0.021,0.12816,0.243198,CWH,0.15947767939610902,0,FALSE,FALSE,-0.19758327160444228,-0.5552593645408336
PKO,WINDY BAY CREEK,915-488000-41400-00000-0000-0000-000-000-000-000-000-000,7,PKO-13,1991,0,38.757,3.657311384646274,215,5.3706380281276624,187.261353195181,283.304509229793,0.8709830381171209,-0.138132776352412,0.0029,0.0033,0.021,0.12816,0.243198,CWH,-0.18487911555035336,0,FALSE,FALSE,-0.19758327160444228,-0.5552593645408336
PKO,WINDY BAY CREEK,915-488000-41400-00000-0000-0000-000-000-000-000-000-000,7,PKO-13,1997,0,38.757,3.657311384646274,100,4.605170185988092,437.365658900889,117.760459652424,4.37365658900889,1.4755994072859575,0.0053,0.0061,0.021,0.12816,0.243198,CWH,0.8907774948170872,0,FALSE,FALSE,-0.19758327160444228,-0.5184139349532252