Species,River,WATERSHED_CDE,DFO,CU,BroodYear,hararea_m2_3005,area_km2,ln_area_km2,Spawners,logS,Recruits,Returns,recruitPerSpawner,ln_RS,ECA_age_proxy,ECA_age_proxy_forested_only,lake_cover_pct,var_eaubc_KFACTOR,var_eaubc_MELTONS_R,vri_bec_zone,npgo,portion_reporting_vri_cover1_missing,hatchery_enhancement,year_of_enhacement,ln_area_km2_std,ECA_age_proxy_forested_only_std
PKO,ORFORD RIVER,900-391500-00000-00000-0000-0000-000-000-000-000-000-000,13,PKO-7,1963,0,422.83,6.0469702070133895,35000,10.46310334047155,56451.61290322581,71428.57142857143,1.6129032258064517,0.4780358009429999,0.0165,0.0488,0.008,0.13928,0.198367,CMA,0.5797944041154652,0.00393564316089395,FALSE,FALSE,1.477100885158039,0.04347886625780243
PKO,ORFORD RIVER,900-391500-00000-00000-0000-0000-000-000-000-000-000-000,13,PKO-7,1965,0,422.83,6.0469702070133895,35000,10.46310334047155,44117.64705882353,56451.61290322581,1.2605042016806722,0.23151180098472635,0.0153,0.0453,0.008,0.13928,0.198367,CMA,-0.7093794641235007,0.00393564316089395,FALSE,FALSE,1.477100885158039,-0.002577920726708068
PKO,ORFORD RIVER,900-391500-00000-00000-0000-0000-000-000-000-000-000-000,13,PKO-7,1967,0,422.83,6.0469702070133895,15000,9.615805480084347,5223.880597014926,44117.64705882353,0.3482587064676617,-1.0548096660097166,0.0149,0.0441,0.008,0.13928,0.198367,CMA,-0.48089809283299456,0.00393564316089395,FALSE,FALSE,1.477100885158039,-0.018368819121397362
PKO,ORFORD RIVER,900-391500-00000-00000-0000-0000-000-000-000-000-000-000,13,PKO-7,1969,349644.514736192,422.83,6.0469702070133895,3500,8.160518247477505,24590.16393442623,5223.880597014926,7.02576112412178,1.9495835544216222,0.0157,0.0465,0.008,0.13928,0.198367,CMA,0.09673401232408343,0.00393564316089395,FALSE,FALSE,1.477100885158039,0.013212977667981228
PKO,ORFORD RIVER,900-391500-00000-00000-0000-0000-000-000-000-000-000-000,13,PKO-7,1971,0,422.83,6.0469702070133895,15000,9.615805480084347,181818.1818181818,24590.16393442623,12.12121212121212,2.4949569856415015,0.0125,0.0371,0.008,0.13928,0.198367,CMA,-0.34080392906905344,0.00393564316089395,FALSE,FALSE,1.477100885158039,-0.11048239309041827
PKO,ORFORD RIVER,900-391500-00000-00000-0000-0000-000-000-000-000-000-000,13,PKO-7,1973,0,422.83,6.0469702070133895,100000,11.512925464970229,35714.28571428572,181818.1818181818,0.35714285714285715,-1.0296194171811581,0.0117,0.0345,0.008,0.13928,0.198367,CMA,-0.20355231452664888,0.00393564316089395,FALSE,FALSE,1.477100885158039,-0.14469600627891174
PKO,ORFORD RIVER,900-391500-00000-00000-0000-0000-000-000-000-000-000-000,13,PKO-7,1975,1106805.45049326,422.83,6.0469702070133895,25000,10.126631103850338,8536.585365853658,35714.28571428572,0.3414634146341463,-1.0745147370890493,0.0157,0.0465,0.008,0.13928,0.198367,CMA,1.2286162579398736,0.00393564316089395,FALSE,FALSE,1.477100885158039,0.013212977667981228
PKO,ORFORD RIVER,900-391500-00000-00000-0000-0000-000-000-000-000-000-000,13,PKO-7,1977,477176.043737787,422.83,6.0469702070133895,3500,8.160518247477505,27906.97674418604,8536.585365853658,7.973421926910297,2.076113751587161,0.0184,0.0545,0.008,0.13928,0.198367,CMA,0.9724829797884954,0.00393564316089395,FALSE,FALSE,1.477100885158039,0.11848563363257657
PKO,ORFORD RIVER,900-391500-00000-00000-0000-0000-000-000-000-000-000-000,13,PKO-7,1979,2129867.95814187,422.83,6.0469702070133895,12000,9.392661928770137,60344.82758620689,27906.97674418604,5.028735632183907,1.6151685871430852,0.0275,0.0813,0.008,0.13928,0.198367,CMA,-1.19975713829789,0.00393564316089395,FALSE,FALSE,1.477100885158039,0.4711490311139709
PKO,ORFORD RIVER,900-391500-00000-00000-0000-0000-000-000-000-000-000-000,13,PKO-7,1981,735750.536616424,422.83,6.0469702070133895,35000,10.46310334047155,4385.964912280701,60344.82758620689,0.12531328320802004,-2.0769384114617173,0.0274,0.0811,0.008,0.13928,0.198367,CMA,-0.22613906119882837,0.00393564316089395,FALSE,FALSE,1.477100885158039,0.46851721471485613
PKO,ORFORD RIVER,900-391500-00000-00000-0000-0000-000-000-000-000-000-000,13,PKO-7,1983,1102846.36933882,422.83,6.0469702070133895,2500,7.824046010856292,3000,4385.964912280701,1.2,0.1823215567939546,0.0341,0.1009,0.008,0.13928,0.198367,CMA,0.10267616261581472,0.00393564316089395,FALSE,FALSE,1.477100885158039,0.7290670382272295
PKO,ORFORD RIVER,900-391500-00000-00000-0000-0000-000-000-000-000-000-000,13,PKO-7,1993,1532622.67690507,422.83,6.0469702070133895,3700,8.216088098632316,6481.481481481481,6851.851851851851,1.7517517517517516,0.5606162882690061,0.0457,0.1352,0.008,0.13928,0.198367,CMA,-1.7567819796155162,0.00393564316089395,FALSE,FALSE,1.477100885158039,1.180423550675432
PKO,ORFORD RIVER,900-391500-00000-00000-0000-0000-000-000-000-000-000-000,13,PKO-7,1995,528742.71673544,422.83,6.0469702070133895,3500,8.160518247477505,307.6923076923077,6481.481481481481,0.0879120879120879,-2.431417964837014,0.0442,0.1308,0.008,0.13928,0.198367,CMA,-0.5672147431639023,0.00393564316089395,FALSE,FALSE,1.477100885158039,1.1225235898949046
PKO,ORFORD RIVER,900-391500-00000-00000-0000-0000-000-000-000-000-000-000,13,PKO-7,2011,1008631.39455805,422.83,6.0469702070133895,3333,8.11162807830774,6558.064516129033,4901.470588235295,1.967616116450355,0.6768227168235522,0.0297,0.0879,0.008,0.13928,0.198367,CMA,0.7408851700104637,0.00393564316089395,FALSE,FALSE,1.477100885158039,0.5579989722847621
PKO,PHILLIPS RIVER,900-447800-00000-00000-0000-0000-000-000-000-000-000-000,13,PKO-7,1959,0,458.271,6.127460712183724,35000,10.46310334047155,87500,83333.33333333333,2.5,0.9162907318741551,0.0124,0.0401,0.026,0.14016,0.159908,MH,0.7824977620566573,0.0315438096498906,FALSE,FALSE,1.5335090102497384,-0.07100514710369507
PKO,PHILLIPS RIVER,900-447800-00000-00000-0000-0000-000-000-000-000-000-000,13,PKO-7,1961,0,458.271,6.127460712183724,35000,10.46310334047155,71428.57142857143,87500,2.0408163265306123,0.7133498878774648,0.0122,0.0396,0.026,0.14016,0.159908,MH,0.00583928468743269,0.0315438096498906,FALSE,FALSE,1.5335090102497384,-0.0775846881014822
PKO,PHILLIPS RIVER,900-447800-00000-00000-0000-0000-000-000-000-000-000-000,13,PKO-7,1963,1116722.07106904,458.271,6.127460712183724,35000,10.46310334047155,129032.25806451614,71428.57142857143,3.686635944700461,1.3047143741274678,0.0147,0.0477,0.026,0.14016,0.159908,MH,0.5797944041154652,0.0315438096498906,FALSE,FALSE,1.5335090102497384,0.029003876062670523
PKO,PHILLIPS RIVER,900-447800-00000-00000-0000-0000-000-000-000-000-000-000,13,PKO-7,1965,50132.1043143207,458.271,6.127460712183724,80000,11.289781913656018,58823.52941176471,129032.25806451614,0.7352941176470589,-0.30748469974796055,0.0122,0.0396,0.026,0.14016,0.159908,MH,-0.7093794641235007,0.0315438096498906,FALSE,FALSE,1.5335090102497384,-0.0775846881014822
PKO,PHILLIPS RIVER,900-447800-00000-00000-0000-0000-000-000-000-000-000-000,13,PKO-7,1967,327459.247867418,458.271,6.127460712183724,20000,9.903487552536127,5223.880597014926,58823.52941176471,0.2611940298507463,-1.3424917384614976,0.0131,0.0426,0.026,0.14016,0.159908,MH,-0.48089809283299456,0.0315438096498906,FALSE,FALSE,1.5335090102497384,-0.038107442114759006
PKO,PHILLIPS RIVER,900-447800-00000-00000-0000-0000-000-000-000-000-000-000,13,PKO-7,1969,0,458.271,6.127460712183724,3500,8.160518247477505,57377.04918032787,5223.880597014926,16.393442622950822,2.796881414808826,0.0121,0.0391,0.026,0.14016,0.159908,MH,0.09673401232408343,0.0315438096498906,FALSE,FALSE,1.5335090102497384,-0.08416422909926942
PKO,PHILLIPS RIVER,900-447800-00000-00000-0000-0000-000-000-000-000-000-000,13,PKO-7,1971,2839.81512714516,458.271,6.127460712183724,35000,10.46310334047155,136363.63636363635,57377.04918032787,3.8961038961038956,1.359977052802517,0.012,0.0391,0.026,0.14016,0.159908,MH,-0.34080392906905344,0.0315438096498906,FALSE,FALSE,1.5335090102497384,-0.08416422909926942
PKO,PHILLIPS RIVER,900-447800-00000-00000-0000-0000-000-000-000-000-000-000,13,PKO-7,1973,549619.95001384,458.271,6.127460712183724,75000,11.225243392518447,250000.00000000003,136363.63636363635,3.333333333333334,1.2039728043259361,0.0133,0.043,0.026,0.14016,0.159908,MH,-0.20355231452664888,0.0315438096498906,FALSE,FALSE,1.5335090102497384,-0.03284380931652927
PKO,PHILLIPS RIVER,900-447800-00000-00000-0000-0000-000-000-000-000-000-000,13,PKO-7,1975,511936.246765558,458.271,6.127460712183724,175000,12.072541252905651,85365.85365853658,250000.00000000003,0.4878048780487805,-0.7178397931503169,0.01,0.0325,0.026,0.14016,0.159908,MH,1.2286162579398736,0.0315438096498906,FALSE,FALSE,1.5335090102497384,-0.17101417027006058
PKO,PHILLIPS RIVER,900-447800-00000-00000-0000-0000-000-000-000-000-000-000,13,PKO-7,1977,1541659.51333227,458.271,6.127460712183724,35000,10.46310334047155,27906.97674418604,85365.85365853658,0.7973421926910297,-0.22647134140688469,0.0208,0.0675,0.026,0.14016,0.159908,MH,0.9724829797884954,0.0315438096498906,FALSE,FALSE,1.5335090102497384,0.28955369957504407
PKO,PHILLIPS RIVER,900-447800-00000-00000-0000-0000-000-000-000-000-000-000,13,PKO-7,1979,2567966.7248976,458.271,6.127460712183724,12000,9.392661928770137,120689.65517241378,27906.97674418604,10.057471264367814,2.3083157677030304,0.0301,0.0978,0.026,0.14016,0.159908,MH,-1.19975713829789,0.0315438096498906,FALSE,FALSE,1.5335090102497384,0.6882738840409488
PKO,PHILLIPS RIVER,900-447800-00000-00000-0000-0000-000-000-000-000-000-000,13,PKO-7,1981,801867.410241243,458.271,6.127460712183724,70000,11.156250521031495,175438.59649122806,120689.65517241378,2.506265664160401,0.9187938620922735,0.0354,0.1148,0.026,0.14016,0.159908,MH,-0.22613906119882837,0.0315438096498906,FALSE,FALSE,1.5335090102497384,0.9119782779657137
PKO,PHILLIPS RIVER,900-447800-00000-00000-0000-0000-000-000-000-000-000-000,13,PKO-7,1983,2711289.52176532,458.271,6.127460712183724,100000,11.512925464970229,42000,175438.59649122806,0.42,-0.8675005677047231,0.0443,0.1438,0.026,0.14016,0.159908,MH,0.10267616261581472,0.0315438096498906,FALSE,FALSE,1.5335090102497384,1.2935916558373721
PKO,PHILLIPS RIVER,900-447800-00000-00000-0000-0000-000-000-000-000-000-000,13,PKO-7,1985,1874942.64650405,458.271,6.127460712183724,21000,9.95227771670556,37500,42000,1.7857142857142858,0.5798184952529422,0.0484,0.1569,0.026,0.14016,0.159908,MH,-0.9758993397997916,0.0315438096498906,FALSE,FALSE,1.5335090102497384,1.4659756299793971
PKO,PHILLIPS RIVER,900-447800-00000-00000-0000-0000-000-000-000-000-000-000,13,PKO-7,1987,2660186.61264716,458.271,6.127460712183724,21000,9.95227771670556,34375.00000000001,37500,1.6369047619047623,0.49280711826331264,0.0548,0.1777,0.026,0.14016,0.159908,MH,0.8862048812919091,0.0315438096498906,FALSE,FALSE,1.5335090102497384,1.7396845354873447
PKO,PHILLIPS RIVER,900-447800-00000-00000-0000-0000-000-000-000-000-000-000,13,PKO-7,1989,541113.096521948,458.271,6.127460712183724,11000,9.305650551780507,28846.153846153844,34375.00000000001,2.622377622377622,0.9640813957105034,0.0597,0.1935,0.026,0.14016,0.159908,MH,0.15947767939610902,0.0315438096498906,FALSE,FALSE,1.5335090102497384,1.9475980310174206
PKO,PHILLIPS RIVER,900-447800-00000-00000-0000-0000-000-000-000-000-000-000,13,PKO-7,1991,2246957.75497062,458.271,6.127460712183724,15000,9.615805480084347,10185.185185185184,28846.153846153844,0.6790123456790123,-0.387115969439968,0.0638,0.2068,0.026,0.14016,0.159908,MH,-0.18487911555035336,0.0315438096498906,FALSE,FALSE,1.5335090102497384,2.1226138215585606
PKO,PHILLIPS RIVER,900-447800-00000-00000-0000-0000-000-000-000-000-000-000,13,PKO-7,1993,1919081.78004798,458.271,6.127460712183724,5500,8.612503371220562,1851.8518518518515,10185.185185185184,0.3367003367003366,-1.0885619528146084,0.0714,0.2314,0.026,0.14016,0.159908,MH,-1.7567819796155162,0.0315438096498906,FALSE,FALSE,1.5335090102497384,2.446327238649691
PKO,PHILLIPS RIVER,900-447800-00000-00000-0000-0000-000-000-000-000-000-000,13,PKO-7,1999,1315365.44641871,458.271,6.127460712183724,100,4.605170185988092,4301.075268817204,101.010101010101,43.01075268817204,3.7614501469487718,0.0728,0.236,0.026,0.14016,0.159908,MH,1.6302835492491898,0.0315438096498906,FALSE,FALSE,1.5335090102497384,2.506859015829333
PKO,PHILLIPS RIVER,900-447800-00000-00000-0000-0000-000-000-000-000-000-000,13,PKO-7,2001,388748.081205188,458.271,6.127460712183724,4000,8.294049640102028,321.5189873417721,4301.075268817204,0.08037974683544304,-2.520993039562421,0.0706,0.229,0.026,0.14016,0.159908,MH,1.9190067210816288,0.0315438096498906,FALSE,FALSE,1.5335090102497384,2.4147454418603123
PKO,PHILLIPS RIVER,900-447800-00000-00000-0000-0000-000-000-000-000-000-000,13,PKO-7,2003,495433.392054145,458.271,6.127460712183724,254,5.537334267018537,590.5263157894738,321.5189873417721,2.324906755076668,0.8436799328917104,0.0689,0.2234,0.026,0.14016,0.159908,MH,0.41101277747559006,0.0315438096498906,FALSE,FALSE,1.5335090102497384,2.3410545826850955
PKO,PHILLIPS RIVER,900-447800-00000-00000-0000-0000-000-000-000-000-000-000,13,PKO-7,2005,663484.669295054,458.271,6.127460712183724,561,6.329720905522696,1461.2244897959183,590.5263157894738,2.604678234930336,0.9573091493154141,0.0647,0.2097,0.026,0.14016,0.159908,MH,-0.8145696192436794,0.0315438096498906,FALSE,FALSE,1.5335090102497384,2.160775159345726
PKO,PHILLIPS RIVER,900-447800-00000-00000-0000-0000-000-000-000-000-000-000,13,PKO-7,2007,739066.379377097,458.271,6.127460712183724,1432,7.266827347520591,2040.4255319148936,1461.2244897959183,1.4248781647450375,0.3540863116408801,0.0619,0.2007,0.026,0.14016,0.159908,MH,0.8768892458318005,0.0315438096498906,FALSE,FALSE,1.5335090102497384,2.042343421385556
PKO,PHILLIPS RIVER,900-447800-00000-00000-0000-0000-000-000-000-000-000-000,13,PKO-7,2009,58394.9325856423,458.271,6.127460712183724,1918,7.559038255443384,4248.529411764706,2040.4255319148936,2.215083113537386,0.7952899258348365,0.0542,0.1756,0.026,0.14016,0.159908,MH,1.604652193542091,0.0315438096498906,FALSE,FALSE,1.5335090102497384,1.7120504632966387
PKO,PHILLIPS RIVER,900-447800-00000-00000-0000-0000-000-000-000-000-000-000,13,PKO-7,2011,38388.7946132814,458.271,6.127460712183724,2889,7.968665700466235,15061.290322580646,4248.529411764706,5.213323060775578,1.651217476007647,0.0517,0.1675,0.026,0.14016,0.159908,MH,0.7408851700104637,0.0315438096498906,FALSE,FALSE,1.5335090102497384,1.6054618991324858
PKO,QUALICUM RIVER,920-490700-00000-00000-0000-0000-000-000-000-000-000-000,14,PKO-3,1971,0,146.119,4.984421358213546,25,3.2188758248682006,45.45454545454545,40.98360655737705,1.8181818181818181,0.5978370007556204,0.1804,0.1934,0.058,0.12881,0.115244,CWH,-0.34080392906905344,0,FALSE,FALSE,0.7324616478678121,1.946282122817863
PKO,QUALICUM RIVER,920-490700-00000-00000-0000-0000-000-000-000-000-000-000,14,PKO-3,1987,0,146.119,4.984421358213546,20,2.995732273553991,215.78947368421055,35.71428571428571,10.789473684210527,2.3785709999719677,0.2241,0.2401,0.058,0.12881,0.115244,CWH,0.8862048812919091,0,FALSE,FALSE,0.7324616478678121,2.5608112520111885
PKO,QUALICUM RIVER,920-490700-00000-00000-0000-0000-000-000-000-000-000-000,14,PKO-3,1989,835169.998059913,146.119,4.984421358213546,41,3.713572066704308,18.91891891891892,215.78947368421055,0.4614370468029005,-0.7734096443051275,0.2196,0.2353,0.058,0.12881,0.115244,CWH,0.15947767939610902,0,FALSE,FALSE,0.7324616478678121,2.4976476584324314
PKO,QUALICUM RIVER,920-490700-00000-00000-0000-0000-000-000-000-000-000-000,14,PKO-3,1991,173694.991097038,146.119,4.984421358213546,7,1.9459101490553132,115.90909090909092,18.91891891891892,16.55844155844156,2.806896035738843,0.2108,0.2258,0.058,0.12881,0.115244,CWH,-0.18487911555035336,0,FALSE,FALSE,0.7324616478678121,2.372636379474474
PKO,QUALICUM RIVER,920-490700-00000-00000-0000-0000-000-000-000-000-000-000,14,PKO-3,1993,131554.545271843,146.119,4.984421358213546,51,3.9318256327243257,480.5555555555556,115.90909090909092,9.422657952069718,2.2431172093054346,0.1985,0.2127,0.058,0.12881,0.115244,CWH,-1.7567819796155162,0,FALSE,FALSE,0.7324616478678121,2.2002524053324493
PKO,QUALICUM RIVER,920-490700-00000-00000-0000-0000-000-000-000-000-000-000,14,PKO-3,1995,0,146.119,4.984421358213546,173,5.153291594497779,813.6363636363637,480.5555555555556,4.7031003678402525,1.5482219439727516,0.1931,0.2069,0.058,0.12881,0.115244,CWH,-0.5672147431639023,0,FALSE,FALSE,0.7324616478678121,2.123929729758118
PKO,QUALICUM RIVER,920-490700-00000-00000-0000-0000-000-000-000-000-000-000,14,PKO-3,1997,533832.650394343,146.119,4.984421358213546,358,5.8805329864007,178.35051546391753,813.6363636363637,0.4981857973852445,-0.6967821844182128,0.1961,0.2102,0.058,0.12881,0.115244,CWH,0.8907774948170872,0,FALSE,FALSE,0.7324616478678121,2.1673547003435134
PKO,QUALICUM RIVER,920-490700-00000-00000-0000-0000-000-000-000-000-000-000,14,PKO-3,1999,220057.415629977,146.119,4.984421358213546,173,5.153291594497779,2629.0697674418607,178.35051546391753,15.19693507191827,2.7210937675147746,0.1945,0.2084,0.058,0.12881,0.115244,CWH,1.6302835492491898,0,FALSE,FALSE,0.7324616478678121,2.1436683527514795
PKO,QUALICUM RIVER,920-490700-00000-00000-0000-0000-000-000-000-000-000-000,14,PKO-3,2001,93662.0893101319,146.119,4.984421358213546,2261,7.72356247227797,4401.333333333333,2629.0697674418607,1.9466312840925843,0.666100332027004,0.1846,0.1978,0.058,0.12881,0.115244,CWH,1.9190067210816288,0,FALSE,FALSE,0.7324616478678121,2.0041820835983906
PKO,QUALICUM RIVER,920-490700-00000-00000-0000-0000-000-000-000-000-000-000,14,PKO-3,2003,21075.0189303526,146.119,4.984421358213546,3301,8.101980731853192,2802.173913043478,4401.333333333333,0.848886371718715,-0.16382993941500934,0.1545,0.1656,0.058,0.12881,0.115244,CWH,0.41101277747559006,0,FALSE,FALSE,0.7324616478678121,1.5804596433408944
PKO,QUALICUM RIVER,920-490700-00000-00000-0000-0000-000-000-000-000-000-000,14,PKO-3,2005,98238.4984651483,146.119,4.984421358213546,2578,7.8547691834991324,2514.4444444444443,2802.173913043478,0.9753469528488923,-0.02496202220776908,0.1467,0.1572,0.058,0.12881,0.115244,CWH,-0.8145696192436794,0,FALSE,FALSE,0.7324616478678121,1.4699233545780692
PKO,QUALICUM RIVER,920-490700-00000-00000-0000-0000-000-000-000-000-000-000,14,PKO-3,2007,53681.8193753541,146.119,4.984421358213546,2263,7.724446645633537,21002.409638554214,2514.4444444444443,9.280781987871947,2.227945809182412,0.1463,0.1568,0.058,0.12881,0.115244,CWH,0.8768892458318005,0,FALSE,FALSE,0.7324616478678121,1.4646597217798394
PKO,QUALICUM RIVER,920-490700-00000-00000-0000-0000-000-000-000-000-000-000,14,PKO-3,2009,14391.0466639905,146.119,4.984421358213546,17432,9.766062876624456,15007.692307692309,21002.409638554214,0.8609277367882233,-0.14974470747478988,0.1449,0.1553,0.058,0.12881,0.115244,CWH,1.604652193542091,0,FALSE,FALSE,0.7324616478678121,1.4449210987864778
PKO,QUALICUM RIVER,920-490700-00000-00000-0000-0000-000-000-000-000-000-000,14,PKO-3,2011,64130.8140721916,146.119,4.984421358213546,7804,8.962391701743002,31662.025316455696,15007.692307692309,4.057153423431022,1.400481600475257,0.1389,0.1489,0.058,0.12881,0.115244,CWH,0.7408851700104637,0,FALSE,FALSE,0.7324616478678121,1.3607029740148016
PKO,QUATAM RIVER,900-368900-00000-00000-0000-0000-000-000-000-000-000-000,13,PKO-3,1959,0,157.245,5.057805098572645,4000,8.294049640102028,8750,9523.809523809525,2.1875,0.7827593392496325,0.0443,0.0779,0.017,0.14058,0.164434,CWH,0.7824977620566573,1.9677510521762e-4,FALSE,FALSE,0.7838893187106395,0.42640815232901785
PKO,QUATAM RIVER,900-368900-00000-00000-0000-0000-000-000-000-000-000-000,13,PKO-3,1961,801583.680138677,157.245,5.057805098572645,3500,8.160518247477505,7142.857142857143,8750,2.0408163265306123,0.7133498878774648,0.0462,0.0813,0.017,0.14058,0.164434,CWH,0.00583928468743269,1.9677510521762e-4,FALSE,FALSE,0.7838893187106395,0.4711490311139709
PKO,QUATAM RIVER,900-368900-00000-00000-0000-0000-000-000-000-000-000-000,13,PKO-3,1963,1805690.97650456,157.245,5.057805098572645,3500,8.160518247477505,5645.1612903225805,7142.857142857143,1.6129032258064515,0.47803580094299974,0.0567,0.0997,0.017,0.14058,0.164434,CWH,0.5797944041154652,1.9677510521762e-4,FALSE,FALSE,0.7838893187106395,0.7132761398325401