Species,River,WATERSHED_CDE,DFO,CU,BroodYear,hararea_m2_3005,area_km2,ln_area_km2,Spawners,logS,Recruits,Returns,recruitPerSpawner,ln_RS,ECA_age_proxy,ECA_age_proxy_forested_only,lake_cover_pct,var_eaubc_KFACTOR,var_eaubc_MELTONS_R,vri_bec_zone,npgo,portion_reporting_vri_cover1_missing,hatchery_enhancement,year_of_enhacement,ln_area_km2_std,ECA_age_proxy_forested_only_std
PKO,ILLIANCE RIVER,910-929800-00000-00000-0000-0000-000-000-000-000-000-000,3,PKO-17,1995,0,127.426,4.847535803948893,500,6.214608098422191,2593.19191381977,1251.77762123492,5.18638382763954,1.6460366966491111,0.0022,0.0051,0.011,-1.25551,0.208073,MH,-0.5672147431639023,0,FALSE,FALSE,0.6365316067795248,-0.5315730169487997
PKO,ILLIANCE RIVER,910-929800-00000-00000-0000-0000-000-000-000-000-000-000,3,PKO-17,1997,0,127.426,4.847535803948893,1500,7.313220387090301,15691.1512785987,2593.19191381977,10.460767519065799,2.347631832528575,0.0022,0.0051,0.011,-1.25551,0.208073,MH,0.8907774948170872,0,FALSE,FALSE,0.6365316067795248,-0.5315730169487997
PKO,ILLIANCE RIVER,910-929800-00000-00000-0000-0000-000-000-000-000-000-000,3,PKO-17,1999,0,127.426,4.847535803948893,6000,8.699514748210191,8503.83680857105,15691.1512785987,1.4173061347618416,0.3487579816663909,0.0022,0.0051,0.011,-1.25551,0.208073,MH,1.6302835492491898,0,FALSE,FALSE,0.6365316067795248,-0.5315730169487997
PKO,ILLIANCE RIVER,910-929800-00000-00000-0000-0000-000-000-000-000-000-000,3,PKO-17,2013,0,127.426,4.847535803948893,3000,8.006367567650246,2389.23870024197,3775.83162521633,0.7964129000806567,-0.227637508931498,0.0022,0.0051,0.011,-1.25551,0.208073,MH,-0.5528640906240193,0,FALSE,FALSE,0.6365316067795248,-0.5315730169487997
PKO,WILAUKS CREEK,910-929900-00000-00000-0000-0000-000-000-000-000-000-000,3,PKO-17,1977,0,11.265,2.4217005738842077,2000,7.600902459542082,1412.48396500428,4566.96515894249,0.70624198250214,-0.34779734879528246,0.0052,0.0064,0.004,0.17334,0.329389,CWH,0.9724829797884954,0,FALSE,FALSE,-1.0635051468694392,-0.5144662103545529
PKO,WILAUKS CREEK,910-929900-00000-00000-0000-0000-000-000-000-000-000-000,3,PKO-17,1979,0,11.265,2.4217005738842077,850,6.745236349484363,4495.26770132805,1412.48396500428,5.288550236856529,1.6655441510046383,0.0052,0.0064,0.004,0.17334,0.329389,CWH,-1.19975713829789,0,FALSE,FALSE,-1.0635051468694392,-0.5144662103545529
PKO,WILAUKS CREEK,910-929900-00000-00000-0000-0000-000-000-000-000-000-000,3,PKO-17,1981,0,11.265,2.4217005738842077,2500,7.824046010856292,13245.8151858628,4495.26770132805,5.298326074345121,1.6673909356424665,0.0052,0.0064,0.004,0.17334,0.329389,CWH,-0.22613906119882837,0,FALSE,FALSE,-1.0635051468694392,-0.5144662103545529
PKO,WILAUKS CREEK,910-929900-00000-00000-0000-0000-000-000-000-000-000-000,3,PKO-17,1983,0,11.265,2.4217005738842077,4000,8.294049640102028,1230.89919604988,13245.8151858628,0.30772479901246996,-1.1785494051260674,0.0052,0.0064,0.004,0.17334,0.329389,CWH,0.10267616261581472,0,FALSE,FALSE,-1.0635051468694392,-0.5144662103545529
PKO,WILAUKS CREEK,910-929900-00000-00000-0000-0000-000-000-000-000-000-000,3,PKO-17,1985,0,11.265,2.4217005738842077,600,6.396929655216146,3364.58166120634,1230.89919604988,5.6076361020105665,1.724129258541767,0.004,0.0049,0.004,0.17334,0.329389,CWH,-0.9758993397997916,0,FALSE,FALSE,-1.0635051468694392,-0.5342048333479145
PKO,WILAUKS CREEK,910-929900-00000-00000-0000-0000-000-000-000-000-000-000,3,PKO-17,1987,0,11.265,2.4217005738842077,1500,7.313220387090301,19144.8054645822,3364.58166120634,12.763203643054801,2.5465663156089673,0.004,0.0049,0.004,0.17334,0.329389,CWH,0.8862048812919091,0,FALSE,FALSE,-1.0635051468694392,-0.5342048333479145
PKO,WILAUKS CREEK,910-929900-00000-00000-0000-0000-000-000-000-000-000-000,3,PKO-17,1989,0,11.265,2.4217005738842077,8000,8.987196820661973,23362.5096294424,19144.8054645822,2.9203137036803,1.07169104327693,0.004,0.0049,0.004,0.17334,0.329389,CWH,0.15947767939610902,0,FALSE,FALSE,-1.0635051468694392,-0.5342048333479145
PKO,WILAUKS CREEK,910-929900-00000-00000-0000-0000-000-000-000-000-000-000,3,PKO-17,1991,0,11.265,2.4217005738842077,4500,8.411832675758411,969.841325974044,23362.5096294424,0.21552029466089867,-1.5347001991119482,0.004,0.0049,0.004,0.17334,0.329389,CWH,-0.18487911555035336,0,FALSE,FALSE,-1.0635051468694392,-0.5342048333479145
PKO,WILAUKS CREEK,910-929900-00000-00000-0000-0000-000-000-000-000-000-000,3,PKO-17,1993,0,11.265,2.4217005738842077,300,5.703782474656201,3755.33286370476,969.841325974044,12.5177762123492,2.5271497310739126,0.004,0.0049,0.004,0.17334,0.329389,CWH,-1.7567819796155162,0,FALSE,FALSE,-1.0635051468694392,-0.5342048333479145
PKO,WILAUKS CREEK,910-929900-00000-00000-0000-0000-000-000-000-000-000-000,3,PKO-17,1995,0,11.265,2.4217005738842077,1500,7.313220387090301,1728.79460921318,3755.33286370476,1.1525297394754532,0.14195929987283695,7e-4,9e-4,0.004,0.17334,0.329389,CWH,-0.5672147431639023,0,FALSE,FALSE,-1.0635051468694392,-0.5868411613302122
PKO,WILAUKS CREEK,910-929900-00000-00000-0000-0000-000-000-000-000-000-000,3,PKO-17,1997,0,11.265,2.4217005738842077,1000,6.907755278982137,7845.57563929935,1728.79460921318,7.84557563929935,2.0599497600767944,7e-4,9e-4,0.004,0.17334,0.329389,CWH,0.8907774948170872,0,FALSE,FALSE,-1.0635051468694392,-0.5868411613302122
PKO,WILAUKS CREEK,910-929900-00000-00000-0000-0000-000-000-000-000-000-000,3,PKO-17,1999,0,11.265,2.4217005738842077,3000,8.006367567650246,11338.4490780947,7845.57563929935,3.7794830260315666,1.3295872346781141,7e-4,9e-4,0.004,0.17334,0.329389,CWH,1.6302835492491898,0,FALSE,FALSE,-1.0635051468694392,-0.5868411613302122
PKO,SALMON COVE CREEK,910-960200-00000-00000-0000-0000-000-000-000-000-000-000,3,PKO-17,1983,0,24.879,3.2140240741371766,1000,6.907755278982137,6154.49598024942,3311.45379646571,6.15449598024942,1.817182868427927,0.0089,0.0105,0.003,0.22131,0.25679,CWH,0.10267616261581472,0,FALSE,FALSE,-0.5082411064614168,-0.46051397417269774
PKO,SALMON COVE CREEK,910-960200-00000-00000-0000-0000-000-000-000-000-000-000,3,PKO-17,1985,0,24.879,3.2140240741371766,3000,8.006367567650246,11215.2722040211,6154.49598024942,3.738424068007033,1.3186641504335994,5e-4,6e-4,0.003,0.22131,0.25679,CWH,-0.9758993397997916,0,FALSE,FALSE,-0.5082411064614168,-0.5907888859288845
PKO,SALMON COVE CREEK,910-960200-00000-00000-0000-0000-000-000-000-000-000-000,3,PKO-17,1987,0,24.879,3.2140240741371766,5000,8.517193191416238,21537.906147655,11215.2722040211,4.307581229531,1.4603765469394159,0,0,0.003,0.22131,0.25679,CWH,0.8862048812919091,0,FALSE,FALSE,-0.5082411064614168,-0.5986843351262291
PKO,SALMON COVE CREEK,910-960200-00000-00000-0000-0000-000-000-000-000-000-000,3,PKO-17,1989,0,24.879,3.2140240741371766,9000,9.104979856318357,14017.5057776654,21537.906147655,1.5575006419628221,0.4430823838545529,0,0,0.003,0.22131,0.25679,CWH,0.15947767939610902,0,FALSE,FALSE,-0.5082411064614168,-0.5986843351262291
PKO,SALMON COVE CREEK,910-960200-00000-00000-0000-0000-000-000-000-000-000-000,3,PKO-17,1991,0,24.879,3.2140240741371766,2700,7.90100705199242,9698.41325974044,14017.5057776654,3.592004911014978,1.2787105176480882,0,0,0.003,0.22131,0.25679,CWH,-0.18487911555035336,0,FALSE,FALSE,-0.5082411064614168,-0.5986843351262291
PKO,SALMON COVE CREEK,910-960200-00000-00000-0000-0000-000-000-000-000-000-000,3,PKO-17,1993,0,24.879,3.2140240741371766,3000,8.006367567650246,500.711048493968,9698.41325974044,0.16690368283132268,-1.790338382462398,0,0,0.003,0.22131,0.25679,CWH,-1.7567819796155162,0,FALSE,FALSE,-0.5082411064614168,-0.5986843351262291
PKO,SALMON COVE CREEK,910-960200-00000-00000-0000-0000-000-000-000-000-000-000,3,PKO-17,1995,0,24.879,3.2140240741371766,200,5.298317366548036,518.638382763954,500.711048493968,2.59319191381977,0.9528895160891658,0,0,0.003,0.22131,0.25679,CWH,-0.5672147431639023,0,FALSE,FALSE,-0.5082411064614168,-0.5986843351262291
PKO,SALMON COVE CREEK,910-960200-00000-00000-0000-0000-000-000-000-000-000-000,3,PKO-17,2001,0,24.879,3.2140240741371766,3000,8.006367567650246,2788.08909546696,4251.91840428552,0.9293630318223199,-0.07325583951323661,0,0,0.003,0.22131,0.25679,CWH,1.9190067210816288,0,FALSE,FALSE,-0.5082411064614168,-0.5986843351262291
PKO,SALMON COVE CREEK,910-960200-00000-00000-0000-0000-000-000-000-000-000-000,3,PKO-17,2003,0,24.879,3.2140240741371766,2000,7.600902459542082,8625.75665514756,2788.08909546696,4.312878327573779,1.4616055066426408,0,0,0.003,0.22131,0.25679,CWH,0.41101277747559006,0,FALSE,FALSE,-0.5082411064614168,-0.5986843351262291
PKO,SALMON COVE CREEK,910-960200-00000-00000-0000-0000-000-000-000-000-000-000,3,PKO-17,2005,0,24.879,3.2140240741371766,6000,8.699514748210191,9647.46095429355,8625.75665514756,1.607910159048925,0.4749352979576882,0,0,0.003,0.22131,0.25679,CWH,-0.8145696192436794,0,FALSE,FALSE,-0.5082411064614168,-0.5986843351262291
PKO,SALMON COVE CREEK,910-960200-00000-00000-0000-0000-000-000-000-000-000-000,3,PKO-17,2007,0,24.879,3.2140240741371766,6000,8.699514748210191,1910.81770219379,9647.46095429355,0.3184696170322983,-1.144228202453339,0,0,0.003,0.22131,0.25679,CWH,0.8768892458318005,0,FALSE,FALSE,-0.5082411064614168,-0.5986843351262291
PKO,DOGFISH CREEK,910-971500-00000-00000-0000-0000-000-000-000-000-000-000,3,PKO-17,1955,0,21.926,3.087673147252348,15000,9.615805480084347,7382.45689051211,26755.8739850206,0.4921637927008073,-0.7089437058992201,0,0,0.017,0.19952,0.246572,CWH,-0.07106879047729574,0,FALSE,FALSE,-0.5967884310693184,-0.5986843351262291
PKO,DOGFISH CREEK,910-971500-00000-00000-0000-0000-000-000-000-000-000-000,3,PKO-17,1957,0,21.926,3.087673147252348,3500,8.160518247477505,36905.5742395493,7382.45689051211,10.544449782728371,2.355599634544607,0,0,0.017,0.19952,0.246572,CWH,-0.3276691034772351,0,FALSE,FALSE,-0.5967884310693184,-0.5986843351262291
PKO,DOGFISH CREEK,910-971500-00000-00000-0000-0000-000-000-000-000-000-000,3,PKO-17,1959,0,21.926,3.087673147252348,21000,9.95227771670556,58598.0208866685,36905.5742395493,2.790381946984214,1.0261784850241717,0,0,0.017,0.19952,0.246572,CWH,0.7824977620566573,0,FALSE,FALSE,-0.5967884310693184,-0.5986843351262291
PKO,DOGFISH CREEK,910-971500-00000-00000-0000-0000-000-000-000-000-000-000,3,PKO-17,1961,0,21.926,3.087673147252348,35000,10.46310334047155,19295.8602033761,58598.0208866685,0.5513102915250315,-0.5954574858207945,0,0,0.017,0.19952,0.246572,CWH,0.00583928468743269,0,FALSE,FALSE,-0.5967884310693184,-0.5986843351262291
PKO,DOGFISH CREEK,910-971500-00000-00000-0000-0000-000-000-000-000-000-000,3,PKO-17,1963,0,21.926,3.087673147252348,15000,9.615805480084347,4513.87087603639,19295.8602033761,0.3009247250690926,-1.2008951283361209,0,0,0.017,0.19952,0.246572,CWH,0.5797944041154652,0,FALSE,FALSE,-0.5967884310693184,-0.5986843351262291
PKO,DOGFISH CREEK,910-971500-00000-00000-0000-0000-000-000-000-000-000-000,3,PKO-17,1965,0,21.926,3.087673147252348,2500,7.824046010856292,4573.15999593538,4513.87087603639,1.8292639983741519,0.6039136992737835,0,0,0.017,0.19952,0.246572,CWH,-0.7093794641235007,0,FALSE,FALSE,-0.5967884310693184,-0.5986843351262291
PKO,DOGFISH CREEK,910-971500-00000-00000-0000-0000-000-000-000-000-000-000,3,PKO-17,1967,0,21.926,3.087673147252348,2000,7.600902459542082,4292.20643680704,4573.15999593538,2.14610321840352,0.7636537410963435,0,0,0.017,0.19952,0.246572,CWH,-0.48089809283299456,0,FALSE,FALSE,-0.5967884310693184,-0.5986843351262291
PKO,DOGFISH CREEK,910-971500-00000-00000-0000-0000-000-000-000-000-000-000,3,PKO-17,1969,0,21.926,3.087673147252348,2500,7.824046010856292,15410.2791656673,4292.20643680704,6.16411166626692,1.818744033170956,0,0,0.017,0.19952,0.246572,CWH,0.09673401232408343,0,FALSE,FALSE,-0.5967884310693184,-0.5986843351262291
PKO,DOGFISH CREEK,910-971500-00000-00000-0000-0000-000-000-000-000-000-000,3,PKO-17,1971,0,21.926,3.087673147252348,10000,9.210340371976184,8657.97973560882,15410.2791656673,0.8657979735608821,-0.1441036845165177,0,0,0.017,0.19952,0.246572,CWH,-0.34080392906905344,0,FALSE,FALSE,-0.5967884310693184,-0.5986843351262291
PKO,DOGFISH CREEK,910-971500-00000-00000-0000-0000-000-000-000-000-000-000,3,PKO-17,1973,0,21.926,3.087673147252348,6000,8.699514748210191,20975.8674700392,8657.97973560882,3.4959779116732,1.2516131396020478,0,0,0.017,0.19952,0.246572,CWH,-0.20355231452664888,0,FALSE,FALSE,-0.5967884310693184,-0.5986843351262291
PKO,DOGFISH CREEK,910-971500-00000-00000-0000-0000-000-000-000-000-000-000,3,PKO-17,1975,0,21.926,3.087673147252348,15000,9.615805480084347,27401.7909536549,20975.8674700392,1.8267860635769935,0.6025581734278056,0,0,0.017,0.19952,0.246572,CWH,1.2286162579398736,0,FALSE,FALSE,-0.5967884310693184,-0.5986843351262291
PKO,DOGFISH CREEK,910-971500-00000-00000-0000-0000-000-000-000-000-000-000,3,PKO-17,1977,0,21.926,3.087673147252348,12000,9.392661928770137,2824.96793000855,27401.7909536549,0.23541399416737915,-1.4464096374633957,0,0,0.017,0.19952,0.246572,CWH,0.9724829797884954,0,FALSE,FALSE,-0.5967884310693184,-0.5986843351262291
PKO,DOGFISH CREEK,910-971500-00000-00000-0000-0000-000-000-000-000-000-000,3,PKO-17,1979,0,21.926,3.087673147252348,1700,7.438383530044307,21577.2849663746,2824.96793000855,12.692520568455645,2.5410128883585363,0,0,0.017,0.19952,0.246572,CWH,-1.19975713829789,0,FALSE,FALSE,-0.5967884310693184,-0.5986843351262291
PKO,DOGFISH CREEK,910-971500-00000-00000-0000-0000-000-000-000-000-000-000,3,PKO-17,1981,0,21.926,3.087673147252348,12000,9.392661928770137,99343.6138939713,21577.2849663746,8.278634491164274,2.113678038270889,0,0,0.017,0.19952,0.246572,CWH,-0.22613906119882837,0,FALSE,FALSE,-0.5967884310693184,-0.5986843351262291
PKO,DOGFISH CREEK,910-971500-00000-00000-0000-0000-000-000-000-000-000-000,3,PKO-17,1983,0,21.926,3.087673147252348,30000,10.308952660644293,123089.919604988,99343.6138939713,4.102997320166266,1.4117177603197593,0,0,0.017,0.19952,0.246572,CWH,0.10267616261581472,0,FALSE,FALSE,-0.5967884310693184,-0.5986843351262291
PKO,DOGFISH CREEK,910-971500-00000-00000-0000-0000-000-000-000-000-000-000,3,PKO-17,1985,0,21.926,3.087673147252348,60000,11.002099841204238,15701.3810856296,123089.919604988,0.2616896847604933,-1.3405958864991747,0,0,0.017,0.19952,0.246572,CWH,-0.9758993397997916,0,FALSE,FALSE,-0.5967884310693184,-0.5986843351262291
PKO,DOGFISH CREEK,910-971500-00000-00000-0000-0000-000-000-000-000-000-000,3,PKO-17,1987,0,21.926,3.087673147252348,7000,8.85366542803745,107689.530738275,15701.3810856296,15.38421867689643,2.733342222752303,0,0,0.017,0.19952,0.246572,CWH,0.8862048812919091,0,FALSE,FALSE,-0.5967884310693184,-0.5986843351262291
PKO,DOGFISH CREEK,910-971500-00000-00000-0000-0000-000-000-000-000-000-000,3,PKO-17,1989,0,21.926,3.087673147252348,45000,10.714417768752456,62300.0256785131,107689.530738275,1.384445015078069,0.32529934819817297,0,0,0.017,0.19952,0.246572,CWH,0.15947767939610902,0,FALSE,FALSE,-0.5967884310693184,-0.5986843351262291
PKO,DOGFISH CREEK,910-971500-00000-00000-0000-0000-000-000-000-000-000-000,3,PKO-17,1991,0,21.926,3.087673147252348,12000,9.392661928770137,80820.110497837,62300.0256785131,6.735009208153083,1.907319177070462,0,0,0.017,0.19952,0.246572,CWH,-0.18487911555035336,0,FALSE,FALSE,-0.5967884310693184,-0.5986843351262291
PKO,DOGFISH CREEK,910-971500-00000-00000-0000-0000-000-000-000-000-000-000,3,PKO-17,1993,0,21.926,3.087673147252348,25000,10.126631103850338,37553.3286370476,80820.110497837,1.502133145481904,0.4068861948738215,0,0,0.017,0.19952,0.246572,CWH,-1.7567819796155162,0,FALSE,FALSE,-0.5967884310693184,-0.5986843351262291
PKO,DOGFISH CREEK,910-971500-00000-00000-0000-0000-000-000-000-000-000-000,3,PKO-17,1995,0,21.926,3.087673147252348,15000,9.615805480084347,5186.38382763954,37553.3286370476,0.345758921842636,-1.062013504453099,0,0,0.017,0.19952,0.246572,CWH,-0.5672147431639023,0,FALSE,FALSE,-0.5967884310693184,-0.5986843351262291
PKO,DOGFISH CREEK,910-971500-00000-00000-0000-0000-000-000-000-000-000-000,3,PKO-17,1997,0,21.926,3.087673147252348,3000,8.006367567650246,31382.3025571974,5186.38382763954,10.460767519065799,2.347631832528575,0,0,0.017,0.19952,0.246572,CWH,0.8907774948170872,0,FALSE,FALSE,-0.5967884310693184,-0.5986843351262291
PKO,DOGFISH CREEK,910-971500-00000-00000-0000-0000-000-000-000-000-000-000,3,PKO-17,1999,0,21.926,3.087673147252348,12000,9.392661928770137,21259.5920214276,31382.3025571974,1.7716326684523,0.5719015329805995,0,0,0.017,0.19952,0.246572,CWH,1.6302835492491898,0,FALSE,FALSE,-0.5967884310693184,-0.5986843351262291
PKO,DOGFISH CREEK,910-971500-00000-00000-0000-0000-000-000-000-000-000-000,3,PKO-17,2001,0,21.926,3.087673147252348,15000,9.615805480084347,12546.4009296013,21259.5920214276,0.8364267286400866,-0.17861635517106453,0,0,0.017,0.19952,0.246572,CWH,1.9190067210816288,0,FALSE,FALSE,-0.5967884310693184,-0.5986843351262291
PKO,DOGFISH CREEK,910-971500-00000-00000-0000-0000-000-000-000-000-000-000,3,PKO-17,2003,0,21.926,3.087673147252348,9000,9.104979856318357,57505.0443676504,12546.4009296013,6.3894493741833776,1.8546480947522481,0,0,0.017,0.19952,0.246572,CWH,0.41101277747559006,0,FALSE,FALSE,-0.5967884310693184,-0.5986843351262291
PKO,DOGFISH CREEK,910-971500-00000-00000-0000-0000-000-000-000-000-000-000,3,PKO-17,2005,0,21.926,3.087673147252348,40000,10.596634733096073,28942.3828628807,57505.0443676504,0.7235595715720174,-0.32357239826008183,0,0,0.017,0.19952,0.246572,CWH,-0.8145696192436794,0,FALSE,FALSE,-0.5967884310693184,-0.5986843351262291
PKO,LIZARD CREEK,915-896000-80300-00000-0000-0000-000-000-000-000-000-000,3,PKO-17,1975,0,30.088,3.4041264211680353,3500,8.160518247477505,228.348257947124,4894.36907634248,0.065242359413464,-2.729646336747399,0.0053,0.0066,0.019,0.01434,0.127007,CWH,1.2286162579398736,0,FALSE,FALSE,-0.3750164863792145,-0.511834393955438
PKO,LIZARD CREEK,915-896000-80300-00000-0000-0000-000-000-000-000-000-000,3,PKO-17,1981,0,30.088,3.4041264211680353,50,3.912023005428146,496.718069469857,89.905354026561,9.934361389397141,2.2959995950648446,0.0039,0.0049,0.019,0.01434,0.127007,CWH,-0.22613906119882837,0,FALSE,FALSE,-0.3750164863792145,-0.5342048333479145
PKO,LIZARD CREEK,915-896000-80300-00000-0000-0000-000-000-000-000-000-000,3,PKO-17,1983,0,30.088,3.4041264211680353,150,5.0106352940962555,5128.74665020785,496.718069469857,34.191644334718994,3.5319812965198536,0.0039,0.0049,0.019,0.01434,0.127007,CWH,0.10267616261581472,0,FALSE,FALSE,-0.3750164863792145,-0.5342048333479145
PKO,LIZARD CREEK,915-896000-80300-00000-0000-0000-000-000-000-000-000-000,3,PKO-17,1989,0,30.088,3.4041264211680353,1000,6.907755278982137,31150.0128392565,2393.10068307278,31.150012839256497,3.4388146574085456,0.0013,0.0016,0.019,0.01434,0.127007,CWH,0.15947767939610902,0,FALSE,FALSE,-0.3750164863792145,-0.5776298039333101
PKO,LIZARD CREEK,915-896000-80300-00000-0000-0000-000-000-000-000-000-000,3,PKO-17,1991,0,30.088,3.4041264211680353,6000,8.699514748210191,45259.2618787887,31150.0128392565,7.54321031313145,2.020647862377465,0.0013,0.0016,0.019,0.01434,0.127007,CWH,-0.18487911555035336,0,FALSE,FALSE,-0.3750164863792145,-0.5776298039333101
PKO,LIZARD CREEK,915-896000-80300-00000-0000-0000-000-000-000-000-000-000,3,PKO-17,1993,0,30.088,3.4041264211680353,14000,9.546812608597396,15021.331454819,45259.2618787887,1.0729522467727857,0.07041395825260582,0.0013,0.0016,0.019,0.01434,0.127007,CWH,-1.7567819796155162,0,FALSE,FALSE,-0.3750164863792145,-0.5776298039333101
PKO,LIZARD CREEK,915-896000-80300-00000-0000-0000-000-000-000-000-000-000,3,PKO-17,1999,0,30.088,3.4041264211680353,3000,8.006367567650246,6377.87760642828,7845.57563929935,2.1259592021427602,0.7542230897745542,0.0013,0.0016,0.019,0.01434,0.127007,CWH,1.6302835492491898,0,FALSE,FALSE,-0.3750164863792145,-0.5776298039333101
PKO,LIZARD CREEK,915-896000-80300-00000-0000-0000-000-000-000-000-000-000,3,PKO-17,2001,0,30.088,3.4041264211680353,4500,8.411832675758411,5576.17819093392,6377.87760642828,1.2391507090964267,0.21442623293854438,0.0013,0.0016,0.019,0.01434,0.127007,CWH,1.9190067210816288,0,FALSE,FALSE,-0.3750164863792145,-0.5776298039333101