Species,River,WATERSHED_CDE,DFO,CU,BroodYear,hararea_m2_3005,area_km2,ln_area_km2,Spawners,logS,Recruits,Returns,recruitPerSpawner,ln_RS,ECA_age_proxy,ECA_age_proxy_forested_only,lake_cover_pct,var_eaubc_KFACTOR,var_eaubc_MELTONS_R,vri_bec_zone,npgo,portion_reporting_vri_cover1_missing,hatchery_enhancement,year_of_enhacement,ln_area_km2_std,ECA_age_proxy_forested_only_std
PKO,DALA RIVER,910-661200-00000-00000-0000-0000-000-000-000-000-000-000,6,PKO-13,1973,2045056.05762919,413.39,6.024391457308263,500,6.214608098422191,717.715994819997,863.800396818846,1.435431989639994,0.36146584198536524,0.0234,0.039,0.006,0.17089,0.235316,MH,-0.20355231452664888,5.1655124043688e-4,FALSE,FALSE,1.4612775910305429,-0.08548013729882689
PKO,DALA RIVER,910-661200-00000-00000-0000-0000-000-000-000-000-000-000,6,PKO-13,1975,10631949.6743785,413.39,6.024391457308263,500,6.214608098422191,860.798868659622,717.715994819997,1.7215977373192441,0.5432527766949921,0.0427,0.0712,0.006,0.17089,0.235316,MH,1.2286162579398736,5.1655124043688e-4,FALSE,FALSE,1.4612775910305429,0.3382423029586693
PKO,DALA RIVER,910-661200-00000-00000-0000-0000-000-000-000-000-000-000,6,PKO-13,1977,157581.103667231,413.39,6.024391457308263,500,6.214608098422191,3364.7405619818,860.798868659622,6.7294811239636,1.9064980417190687,0.0426,0.071,0.006,0.17089,0.235316,MH,0.9724829797884954,5.1655124043688e-4,FALSE,FALSE,1.4612775910305429,0.33561048655955433
PKO,DALA RIVER,910-661200-00000-00000-0000-0000-000-000-000-000-000-000,6,PKO-13,1979,0,413.39,6.024391457308263,2000,7.600902459542082,5844.17060258407,3364.7405619818,2.9220853012920354,1.0722975056785997,0.0407,0.0679,0.006,0.17089,0.235316,MH,-1.19975713829789,5.1655124043688e-4,FALSE,FALSE,1.4612775910305429,0.2948173323732738
PKO,DALA RIVER,910-661200-00000-00000-0000-0000-000-000-000-000-000-000,6,PKO-13,1981,0,413.39,6.024391457308263,2000,7.600902459542082,13750.1627568093,5844.17060258407,6.8750813784046505,1.927903480341438,0.0407,0.0679,0.006,0.17089,0.235316,MH,-0.22613906119882837,5.1655124043688e-4,FALSE,FALSE,1.4612775910305429,0.2948173323732738
PKO,DALA RIVER,910-661200-00000-00000-0000-0000-000-000-000-000-000-000,6,PKO-13,1983,0,413.39,6.024391457308263,8000,8.987196820661973,72791.0056201535,13750.1627568093,9.098875702519187,2.208150856716261,0.0405,0.0675,0.006,0.17089,0.235316,MH,0.10267616261581472,5.1655124043688e-4,FALSE,FALSE,1.4612775910305429,0.28955369957504407
PKO,DALA RIVER,910-661200-00000-00000-0000-0000-000-000-000-000-000-000,6,PKO-13,1985,0,413.39,6.024391457308263,40000,10.596634733096073,102876.526229077,72791.0056201535,2.571913155726925,0.9446500405358441,0.0363,0.0605,0.006,0.17089,0.235316,MH,-0.9758993397997916,5.1655124043688e-4,FALSE,FALSE,1.4612775910305429,0.19744012560602303
PKO,DALA RIVER,910-661200-00000-00000-0000-0000-000-000-000-000-000-000,6,PKO-13,1987,87655.0482437066,413.39,6.024391457308263,50000,10.819778284410283,16680.0709570219,102876.526229077,0.333601419140438,-1.0978083544884942,0.0298,0.0496,0.006,0.17089,0.235316,MH,0.8862048812919091,5.1655124043688e-4,FALSE,FALSE,1.4612775910305429,0.0540061318542619
PKO,DALA RIVER,910-661200-00000-00000-0000-0000-000-000-000-000-000-000,6,PKO-13,1989,0,413.39,6.024391457308263,15000,9.615805480084347,52707.8156706592,16680.0709570219,3.5138543780439466,1.2567135483951102,0.0285,0.0475,0.006,0.17089,0.235316,MH,0.15947767939610902,5.1655124043688e-4,FALSE,FALSE,1.4612775910305429,0.026372059663555655
PKO,DALA RIVER,910-661200-00000-00000-0000-0000-000-000-000-000-000-000,6,PKO-13,1991,0,413.39,6.024391457308263,40000,10.596634733096073,1070.06487540104,52707.8156706592,0.026751621885025997,-3.6211601762621943,0.0285,0.0476,0.006,0.17089,0.235316,MH,-0.18487911555035336,5.1655124043688e-4,FALSE,FALSE,1.4612775910305429,0.027687967863113137
PKO,DALA RIVER,910-661200-00000-00000-0000-0000-000-000-000-000-000-000,6,PKO-13,1993,2466440.4621213,413.39,6.024391457308263,1000,6.907755278982137,15916.3893694363,1070.06487540104,15.916389369436299,2.7673493562913474,0.0344,0.0574,0.006,0.17089,0.235316,MH,-1.7567819796155162,5.1655124043688e-4,FALSE,FALSE,1.4612775910305429,0.15664697141974238
PKO,DALA RIVER,910-661200-00000-00000-0000-0000-000-000-000-000-000-000,6,PKO-13,1995,138.463933017486,413.39,6.024391457308263,14000,9.546812608597396,16486.4643513393,15916.3893694363,1.1776045965242357,0.1634823722832907,0.036,0.06,0.006,0.17089,0.235316,MH,-0.5672147431639023,5.1655124043688e-4,FALSE,FALSE,1.4612775910305429,0.19086058460823582
PKO,DALA RIVER,910-661200-00000-00000-0000-0000-000-000-000-000-000-000,6,PKO-13,1997,1436363.92238326,413.39,6.024391457308263,14000,9.546812608597396,27335.3536813055,16486.4643513393,1.9525252629503929,0.6691235414190067,0.0264,0.0439,0.006,0.17089,0.235316,MH,0.8907774948170872,5.1655124043688e-4,FALSE,FALSE,1.4612775910305429,-0.02100063552051223
PKO,DALA RIVER,910-661200-00000-00000-0000-0000-000-000-000-000-000-000,6,PKO-13,1999,1577374.30083797,413.39,6.024391457308263,25000,10.126631103850338,272940.53344838,27335.3536813055,10.9176213379352,2.390378120392777,0.0318,0.053,0.006,0.17089,0.235316,MH,1.6302835492491898,5.1655124043688e-4,FALSE,FALSE,1.4612775910305429,0.09874701063921493
PKO,DALA RIVER,910-661200-00000-00000-0000-0000-000-000-000-000-000-000,6,PKO-13,2001,595940.01227545,413.39,6.024391457308263,200000,12.206072645530174,368868.386390496,272940.53344838,1.8443419319524799,0.6121225374197964,0.037,0.0617,0.006,0.17089,0.235316,MH,1.9190067210816288,5.1655124043688e-4,FALSE,FALSE,1.4612775910305429,0.21323102400071234
PKO,DALA RIVER,910-661200-00000-00000-0000-0000-000-000-000-000-000-000,6,PKO-13,2003,15744.0961751892,413.39,6.024391457308263,250000,12.429216196844383,238748.153542298,368868.386390496,0.954992614169192,-0.04605167238556241,0.0379,0.0631,0.006,0.17089,0.235316,MH,0.41101277747559006,5.1655124043688e-4,FALSE,FALSE,1.4612775910305429,0.2316537387945166
PKO,DALA RIVER,910-661200-00000-00000-0000-0000-000-000-000-000-000-000,6,PKO-13,2005,472901.62282029,413.39,6.024391457308263,160000,11.982929094215963,124521.416101525,238748.153542298,0.7782588506345313,-0.25069609724255276,0.0353,0.0588,0.006,0.17089,0.235316,MH,-0.8145696192436794,5.1655124043688e-4,FALSE,FALSE,1.4612775910305429,0.17506968621354654
PKO,DALA RIVER,910-661200-00000-00000-0000-0000-000-000-000-000-000-000,6,PKO-13,2007,0,413.39,6.024391457308263,100000,11.512925464970229,435983.598255757,124521.416101525,4.35983598255757,1.4724344379738863,0.0352,0.0587,0.006,0.17089,0.235316,MH,0.8768892458318005,5.1655124043688e-4,FALSE,FALSE,1.4612775910305429,0.17375377801398914
PKO,DALA RIVER,910-661200-00000-00000-0000-0000-000-000-000-000-000-000,6,PKO-13,2009,0,413.39,6.024391457308263,338000,12.730801174465157,48684.2055641516,435983.598255757,0.1440361111365432,-1.937691239062574,0.0336,0.056,0.006,0.17089,0.235316,MH,1.604652193542091,5.1655124043688e-4,FALSE,FALSE,1.4612775910305429,0.1382242566259382
PKO,DALA RIVER,910-661200-00000-00000-0000-0000-000-000-000-000-000-000,6,PKO-13,2011,0,413.39,6.024391457308263,41000,10.621327345686446,164143.388812081,48684.2055641516,4.0034972880995365,1.3871683011479157,0.0316,0.0527,0.006,0.17089,0.235316,MH,0.7408851700104637,5.1655124043688e-4,FALSE,FALSE,1.4612775910305429,0.09479928604054258
PKO,DALA RIVER,910-661200-00000-00000-0000-0000-000-000-000-000-000-000,6,PKO-13,2013,0,413.39,6.024391457308263,125520,11.740220387406914,15470.7840297383,164143.388812081,0.12325353752181566,-2.093511764468671,0.031,0.0517,0.006,0.17089,0.235316,MH,-0.5528640906240193,5.1655124043688e-4,FALSE,FALSE,1.4612775910305429,0.08164020404496823
PKO,WATHL CREEK,910-670400-00000-00000-0000-0000-000-000-000-000-000-000,6,PKO-13,1959,0,123.972,4.820055733655309,75,4.31748811353631,393.866089432806,103.148488225912,5.25154785910408,1.6585228634551576,0.0035,0.004,0.009,-0.62346,0.167614,MH,0.7824977620566573,0.0179306935537529,FALSE,FALSE,0.6172734441009721,-0.5460480071439315
PKO,WATHL CREEK,910-670400-00000-00000-0000-0000-000-000-000-000-000-000,6,PKO-13,1961,0,123.972,4.820055733655309,200,5.298317366548036,392.455258790678,393.866089432806,1.96227629395339,0.6741051738348119,0.0033,0.0037,0.009,-0.62346,0.167614,MH,0.00583928468743269,0.0179306935537529,FALSE,FALSE,0.6172734441009721,-0.5499957317426037
PKO,WATHL CREEK,910-670400-00000-00000-0000-0000-000-000-000-000-000-000,6,PKO-13,1973,0,123.972,4.820055733655309,20,2.995732273553991,28.7086397927999,34.5520158727538,1.435431989639995,0.36146584198536585,0.0022,0.0025,0.009,-0.62346,0.167614,MH,-0.20355231452664888,0.0179306935537529,FALSE,FALSE,0.6172734441009721,-0.565786630137293
PKO,WATHL CREEK,910-670400-00000-00000-0000-0000-000-000-000-000-000-000,6,PKO-13,1983,0,123.972,4.820055733655309,50,3.912023005428146,18.1977514050384,85.9385172300582,0.36395502810076796,-1.0107249681519386,0.0011,0.0012,0.009,-0.62346,0.167614,MH,0.10267616261581472,0.0179306935537529,FALSE,FALSE,0.6172734441009721,-0.5828934367315398
PKO,WATHL CREEK,910-670400-00000-00000-0000-0000-000-000-000-000-000-000,6,PKO-13,1985,0,123.972,4.820055733655309,10,2.302585092994046,617.259157374463,18.1977514050384,61.7259157374463,4.122703870883791,0.0011,0.0012,0.009,-0.62346,0.167614,MH,-0.9758993397997916,0.0179306935537529,FALSE,FALSE,0.6172734441009721,-0.5828934367315398
PKO,WATHL CREEK,910-670400-00000-00000-0000-0000-000-000-000-000-000-000,6,PKO-13,1987,0,123.972,4.820055733655309,300,5.703782474656201,111.200473046812,617.259157374463,0.37066824348937333,-0.9924478388306739,0.0011,0.0012,0.009,-0.62346,0.167614,MH,0.8862048812919091,0.0179306935537529,FALSE,FALSE,0.6172734441009721,-0.5828934367315398
PKO,WATHL CREEK,910-670400-00000-00000-0000-0000-000-000-000-000-000-000,6,PKO-13,1989,0,123.972,4.820055733655309,100,4.605170185988092,188.430441022607,111.200473046812,1.88430441022607,0.6335587396552017,3e-4,3e-4,0.009,-0.62346,0.167614,MH,0.15947767939610902,0.0179306935537529,FALSE,FALSE,0.6172734441009721,-0.5947366105275568
PKO,WATHL CREEK,910-670400-00000-00000-0000-0000-000-000-000-000-000-000,6,PKO-13,2003,0,123.972,4.820055733655309,300,5.703782474656201,2685.91672735085,442.642063668596,8.953055757836166,2.1919948994709113,0.0033,0.0038,0.009,-0.62346,0.167614,MH,0.41101277747559006,0.0179306935537529,FALSE,FALSE,0.6172734441009721,-0.5486798235430463
PKO,WATHL CREEK,910-670400-00000-00000-0000-0000-000-000-000-000-000-000,6,PKO-13,2005,0,123.972,4.820055733655309,1800,7.495541943884256,174.329982542135,2685.91672735085,0.09684999030118611,-2.334591989271769,0.0033,0.0038,0.009,-0.62346,0.167614,MH,-0.8145696192436794,0.0179306935537529,FALSE,FALSE,0.6172734441009721,-0.5486798235430463
PKO,WATHL CREEK,910-670400-00000-00000-0000-0000-000-000-000-000-000-000,6,PKO-13,2007,0,123.972,4.820055733655309,140,4.941642422609304,2579.78460506365,174.329982542135,18.427032893311786,2.9138187654117367,0.0025,0.0029,0.009,-0.62346,0.167614,MH,0.8768892458318005,0.0179306935537529,FALSE,FALSE,0.6172734441009721,-0.5605229973390633
PKO,WATHL CREEK,910-670400-00000-00000-0000-0000-000-000-000-000-000-000,6,PKO-13,2009,0,123.972,4.820055733655309,2000,7.600902459542082,338.414599653249,2579.78460506365,0.1692072998266245,-1.7766306895572945,0.0024,0.0027,0.009,-0.62346,0.167614,MH,1.604652193542091,0.0179306935537529,FALSE,FALSE,0.6172734441009721,-0.5631548137381782
PKO,WATHL CREEK,910-670400-00000-00000-0000-0000-000-000-000-000-000-000,6,PKO-13,2011,0,123.972,4.820055733655309,285,5.652489180268651,6538.53524586047,338.414599653249,22.942228932843754,3.132979270575035,0.0024,0.0027,0.009,-0.62346,0.167614,MH,0.7408851700104637,0.0179306935537529,FALSE,FALSE,0.6172734441009721,-0.5631548137381782
PKO,WATHL CREEK,910-670400-00000-00000-0000-0000-000-000-000-000-000-000,6,PKO-13,2013,0,123.972,4.820055733655309,5000,8.517193191416238,319.505322353292,6538.53524586047,0.0639010644706584,-2.750419259354637,0.0024,0.0027,0.009,-0.62346,0.167614,MH,-0.5528640906240193,0.0179306935537529,FALSE,FALSE,0.6172734441009721,-0.5631548137381782
PKO,KIHESS CREEK,910-711600-00000-00000-0000-0000-000-000-000-000-000-000,6,PKO-13,1955,0,8.445,2.1335745502597634,75,4.31748811353631,132.886563274022,143.515992521883,1.7718208436536267,0.5720077430385899,0,0,0.027,0.22258,0.336547,CWH,-0.07106879047729574,0,FALSE,FALSE,-1.265425221148855,-0.5986843351262291
PKO,KIHESS CREEK,910-711600-00000-00000-0000-0000-000-000-000-000-000-000,6,PKO-13,1957,0,8.445,2.1335745502597634,75,4.31748811353631,34.3828294086374,132.886563274022,0.45843772544849865,-0.779930818869091,0,0,0.027,0.22258,0.336547,CWH,-0.3276691034772351,0,FALSE,FALSE,-1.265425221148855,-0.5986843351262291
PKO,KIHESS CREEK,910-711600-00000-00000-0000-0000-000-000-000-000-000-000,6,PKO-13,1985,0,8.445,2.1335745502597634,1100,7.003065458786462,154.314789343616,2001.75265455422,0.14028617213056002,-1.9640708560285136,0,0,0.027,0.22258,0.336547,CWH,-0.9758993397997916,0,FALSE,FALSE,-1.265425221148855,-0.5986843351262291
PKO,KIHESS CREEK,910-711600-00000-00000-0000-0000-000-000-000-000-000-000,6,PKO-13,1987,0,8.445,2.1335745502597634,75,4.31748811353631,22.2400946093625,154.314789343616,0.2965345947915,-1.215591390144879,0,0,0.027,0.22258,0.336547,CWH,0.8862048812919091,0,FALSE,FALSE,-1.265425221148855,-0.5986843351262291
PKO,KIHESS CREEK,910-711600-00000-00000-0000-0000-000-000-000-000-000-000,6,PKO-13,1989,0,8.445,2.1335745502597634,20,2.995732273553991,98.8271543824861,22.2400946093625,4.941357719124305,1.5976401353657044,0.0107,0.0172,0.027,0.22258,0.336547,CWH,0.15947767939610902,0,FALSE,FALSE,-1.265425221148855,-0.3723481248023492
PKO,KIHESS CREEK,910-711600-00000-00000-0000-0000-000-000-000-000-000-000,6,PKO-13,2005,0,8.445,2.1335745502597634,1400,7.24422751560335,435.824956355337,2089.04634349511,0.31130354025381213,-1.166986829116709,0.0081,0.0131,0.027,0.22258,0.336547,CWH,-0.8145696192436794,0,FALSE,FALSE,-1.265425221148855,-0.42630036098420426
PKO,KIHESS CREEK,910-711600-00000-00000-0000-0000-000-000-000-000-000-000,6,PKO-13,2007,0,8.445,2.1335745502597634,350,5.857933154483459,386.967690759548,435.824956355337,1.1056219735987087,0.10040804865170164,0.0081,0.0131,0.027,0.22258,0.336547,CWH,0.8768892458318005,0,FALSE,FALSE,-1.265425221148855,-0.42630036098420426
PKO,KIHESS CREEK,910-711600-00000-00000-0000-0000-000-000-000-000-000-000,6,PKO-13,2009,0,8.445,2.1335745502597634,300,5.703782474656201,94.9935718324909,386.967690759548,0.31664523944163636,-1.1499732502661826,0.0028,0.0044,0.027,0.22258,0.336547,CWH,1.604652193542091,0,FALSE,FALSE,-1.265425221148855,-0.5407843743457017
PKO,KIHESS CREEK,910-711600-00000-00000-0000-0000-000-000-000-000-000-000,6,PKO-13,2011,0,8.445,2.1335745502597634,80,4.382026634673881,2419.25804096837,94.9935718324909,30.240725512104625,3.4091895428259353,0.0027,0.0044,0.027,0.22258,0.336547,CWH,0.7408851700104637,0,FALSE,FALSE,-1.265425221148855,-0.5407843743457017
PKO,KIHESS CREEK,910-711600-00000-00000-0000-0000-000-000-000-000-000-000,6,PKO-13,2013,0,8.445,2.1335745502597634,1850,7.52294091807237,112.107130650278,2419.25804096837,0.06059844900015027,-2.803485980291328,0.0027,0.0044,0.027,0.22258,0.336547,CWH,-0.5528640906240193,0,FALSE,FALSE,-1.265425221148855,-0.5407843743457017
PKO,KITKIATA CREEK,910-713300-00000-00000-0000-0000-000-000-000-000-000-000,6,PKO-13,1955,0,75.432,4.3232315881633765,1500,7.313220387090301,708.728337461451,2870.31985043766,0.472485558307634,-0.7497480969437291,0.0015,0.0026,0.045,0.04755,0.146318,CWH,-0.07106879047729574,4.5508335077035e-4,FALSE,FALSE,0.2690967431574363,-0.5644707219377357
PKO,KITKIATA CREEK,910-713300-00000-00000-0000-0000-000-000-000-000-000-000,6,PKO-13,1957,0,75.432,4.3232315881633765,400,5.991464547107982,2062.96976451825,708.728337461451,5.157424411295625,1.6404373097813412,0.0015,0.0026,0.045,0.04755,0.146318,CWH,-0.3276691034772351,4.5508335077035e-4,FALSE,FALSE,0.2690967431574363,-0.5644707219377357
PKO,KITKIATA CREEK,910-713300-00000-00000-0000-0000-000-000-000-000-000-000,6,PKO-13,1959,0,75.432,4.3232315881633765,1500,7.313220387090301,147699.783537302,2062.96976451825,98.46652235820133,4.589716615871576,0.0015,0.0026,0.045,0.04755,0.146318,CWH,0.7824977620566573,4.5508335077035e-4,FALSE,FALSE,0.2690967431574363,-0.5644707219377357
PKO,KITKIATA CREEK,910-713300-00000-00000-0000-0000-000-000-000-000-000-000,6,PKO-13,1961,0,75.432,4.3232315881633765,75000,11.225243392518447,539625.980837183,147699.783537302,7.195013077829106,1.973388157965074,0.0015,0.0026,0.045,0.04755,0.146318,CWH,0.00583928468743269,4.5508335077035e-4,FALSE,FALSE,0.2690967431574363,-0.5644707219377357
PKO,KITKIATA CREEK,910-713300-00000-00000-0000-0000-000-000-000-000-000-000,6,PKO-13,1963,0,75.432,4.3232315881633765,275000,12.524526376648708,106402.083233619,539625.980837183,0.3869166663040691,-0.9495459416873621,5e-4,9e-4,0.045,0.04755,0.146318,CWH,0.5797944041154652,4.5508335077035e-4,FALSE,FALSE,0.2690967431574363,-0.5868411613302122
PKO,KITKIATA CREEK,910-713300-00000-00000-0000-0000-000-000-000-000-000-000,6,PKO-13,1969,0,75.432,4.3232315881633765,8000,8.987196820661973,32336.4658004053,9351.88496055532,4.0420582250506625,1.396754023887738,5e-4,9e-4,0.045,0.04755,0.146318,CWH,0.09673401232408343,4.5508335077035e-4,FALSE,FALSE,0.2690967431574363,-0.5868411613302122
PKO,KITKIATA CREEK,910-713300-00000-00000-0000-0000-000-000-000-000-000-000,6,PKO-13,1971,0,75.432,4.3232315881633765,25000,10.126631103850338,34552.0158727538,32336.4658004053,1.382080634910152,0.323590070177504,5e-4,9e-4,0.045,0.04755,0.146318,CWH,-0.34080392906905344,4.5508335077035e-4,FALSE,FALSE,0.2690967431574363,-0.5868411613302122
PKO,KITKIATA CREEK,910-713300-00000-00000-0000-0000-000-000-000-000-000-000,6,PKO-13,1973,0,75.432,4.3232315881633765,20000,9.903487552536127,57417.2795855997,34552.0158727538,2.870863979279985,1.0546130225453094,5e-4,8e-4,0.045,0.04755,0.146318,CWH,-0.20355231452664888,4.5508335077035e-4,FALSE,FALSE,0.2690967431574363,-0.5881570695297695
PKO,KITKIATA CREEK,910-713300-00000-00000-0000-0000-000-000-000-000-000-000,6,PKO-13,1975,0,75.432,4.3232315881633765,40000,10.596634733096073,17215.9773731924,57417.2795855997,0.43039943432981,-0.8430415844249011,5e-4,8e-4,0.045,0.04755,0.146318,CWH,1.2286162579398736,4.5508335077035e-4,FALSE,FALSE,0.2690967431574363,-0.5881570695297695
PKO,KITKIATA CREEK,910-713300-00000-00000-0000-0000-000-000-000-000-000-000,6,PKO-13,1977,0,75.432,4.3232315881633765,10000,9.210340371976184,58882.9598346814,17215.9773731924,5.88829598346814,1.7729666490945444,5e-4,8e-4,0.045,0.04755,0.146318,CWH,0.9724829797884954,4.5508335077035e-4,FALSE,FALSE,0.2690967431574363,-0.5881570695297695
PKO,KITKIATA CREEK,910-713300-00000-00000-0000-0000-000-000-000-000-000-000,6,PKO-13,1979,0,75.432,4.3232315881633765,35000,10.46310334047155,116883.412051681,58882.9598346814,3.3395260586194575,1.205828898303119,5e-4,8e-4,0.045,0.04755,0.146318,CWH,-1.19975713829789,4.5508335077035e-4,FALSE,FALSE,0.2690967431574363,-0.5881570695297695
PKO,KITKIATA CREEK,910-713300-00000-00000-0000-0000-000-000-000-000-000-000,6,PKO-13,1981,0,75.432,4.3232315881633765,40000,10.596634733096073,29219.0958582198,116883.412051681,0.730477396455495,-0.3140569908361714,5e-4,8e-4,0.045,0.04755,0.146318,CWH,-0.22613906119882837,4.5508335077035e-4,FALSE,FALSE,0.2690967431574363,-0.5881570695297695
PKO,KITKIATA CREEK,910-713300-00000-00000-0000-0000-000-000-000-000-000-000,6,PKO-13,1983,0,75.432,4.3232315881633765,17000,9.740968623038354,72791.0056201535,29219.0958582198,4.2818238600090295,1.4543790543398807,1e-4,2e-4,0.045,0.04755,0.146318,CWH,0.10267616261581472,4.5508335077035e-4,FALSE,FALSE,0.2690967431574363,-0.5960525187271143
PKO,KITKIATA CREEK,910-713300-00000-00000-0000-0000-000-000-000-000-000-000,6,PKO-13,1985,0,75.432,4.3232315881633765,40000,10.596634733096073,30862.9578687231,72791.0056201535,0.7715739467180776,-0.2593227637900918,1e-4,2e-4,0.045,0.04755,0.146318,CWH,-0.9758993397997916,4.5508335077035e-4,FALSE,FALSE,0.2690967431574363,-0.5960525187271143