Species,River,WATERSHED_CDE,DFO,CU,BroodYear,hararea_m2_3005,area_km2,ln_area_km2,Spawners,logS,Recruits,Returns,recruitPerSpawner,ln_RS,ECA_age_proxy,ECA_age_proxy_forested_only,lake_cover_pct,var_eaubc_KFACTOR,var_eaubc_MELTONS_R,vri_bec_zone,npgo,portion_reporting_vri_cover1_missing,hatchery_enhancement,year_of_enhacement,ln_area_km2_std,ECA_age_proxy_forested_only_std
PKO,BIG CREEK,910-500200-00000-00000-0000-0000-000-000-000-000-000-000,7,PKO-13,1967,0,7.042,1.9518922207328608,500,6.214608098422191,701.391372041649,727.47806655448,1.402782744083298,0.3384579381555457,0.0018,0.0029,0.008,0.23083,0.463044,CWH,-0.48089809283299456,0,FALSE,FALSE,-1.3927490533103908,-0.5605229973390633
PKO,BIG CREEK,910-500200-00000-00000-0000-0000-000-000-000-000-000-000,7,PKO-13,1969,0,7.042,1.9518922207328608,600,6.396929655216146,9054.2104241135,701.391372041649,15.090350706855833,2.714055513520679,0.0018,0.0029,0.008,0.23083,0.463044,CWH,0.09673401232408343,0,FALSE,FALSE,-1.3927490533103908,-0.5605229973390633
PKO,BIG CREEK,910-500200-00000-00000-0000-0000-000-000-000-000-000-000,7,PKO-13,1971,0,7.042,1.9518922207328608,7000,8.85366542803745,5182.80238091307,9054.2104241135,0.7404003401304385,-0.3005642388954899,0.0018,0.0029,0.008,0.23083,0.463044,CWH,-0.34080392906905344,0,FALSE,FALSE,-1.3927490533103908,-0.5605229973390633
PKO,BIG CREEK,910-500200-00000-00000-0000-0000-000-000-000-000-000-000,7,PKO-13,1973,0,7.042,1.9518922207328608,3000,8.006367567650246,1076.57399223,5182.80238091307,0.35885799740999996,-1.0248285191345214,0.0018,0.0029,0.008,0.23083,0.463044,CWH,-0.20355231452664888,0,FALSE,FALSE,-1.3927490533103908,-0.5605229973390633
PKO,BIG CREEK,910-500200-00000-00000-0000-0000-000-000-000-000-000-000,7,PKO-13,1975,0,7.042,1.9518922207328608,750,6.620073206530356,3443.19547463849,1076.57399223,4.590927299517986,1.5240820297067186,0.0018,0.0029,0.008,0.23083,0.463044,CWH,1.2286162579398736,0,FALSE,FALSE,-1.3927490533103908,-0.5605229973390633
PKO,BIG CREEK,910-500200-00000-00000-0000-0000-000-000-000-000-000-000,7,PKO-13,1977,0,7.042,1.9518922207328608,2000,7.600902459542082,5888.29598346814,3443.19547463849,2.9441479917340696,1.079819468534599,7e-4,0.0011,0.008,0.23083,0.463044,CWH,0.9724829797884954,0,FALSE,FALSE,-1.3927490533103908,-0.5842093449310973
PKO,BIG CREEK,910-500200-00000-00000-0000-0000-000-000-000-000-000-000,7,PKO-13,1979,0,7.042,1.9518922207328608,3500,8.160518247477505,14610.4265064602,5888.29598346814,4.174407573274343,1.4289724496173337,7e-4,0.0011,0.008,0.23083,0.463044,CWH,-1.19975713829789,0,FALSE,FALSE,-1.3927490533103908,-0.5842093449310973
PKO,BIG CREEK,910-500200-00000-00000-0000-0000-000-000-000-000-000-000,7,PKO-13,1981,0,7.042,1.9518922207328608,5000,8.517193191416238,11172.0072399076,14610.4265064602,2.23440144798152,0.8039733836890425,7e-4,0.0011,0.008,0.23083,0.463044,CWH,-0.22613906119882837,0,FALSE,FALSE,-1.3927490533103908,-0.5842093449310973
PKO,BIG CREEK,910-500200-00000-00000-0000-0000-000-000-000-000-000-000,7,PKO-13,1983,0,7.042,1.9518922207328608,6500,8.779557455883728,14012.2685818796,11172.0072399076,2.1557336279814767,0.7681310962402108,7e-4,0.0011,0.008,0.23083,0.463044,CWH,0.10267616261581472,0,FALSE,FALSE,-1.3927490533103908,-0.5842093449310973
PKO,BIG CREEK,910-500200-00000-00000-0000-0000-000-000-000-000-000-000,7,PKO-13,1985,0,7.042,1.9518922207328608,7700,8.948975607841776,411.506104916308,14012.2685818796,0.05344235128783221,-2.929151752072104,7e-4,0.0011,0.008,0.23083,0.463044,CWH,-0.9758993397997916,0,FALSE,FALSE,-1.3927490533103908,-0.5842093449310973
PKO,BIG CREEK,910-500200-00000-00000-0000-0000-000-000-000-000-000-000,7,PKO-13,1987,0,7.042,1.9518922207328608,200,5.298317366548036,8673.63689765136,411.506104916308,43.3681844882568,3.7697260959670853,2e-4,4e-4,0.008,0.23083,0.463044,CWH,0.8862048812919091,0,FALSE,FALSE,-1.3927490533103908,-0.5934207023279994
PKO,BIG CREEK,910-500200-00000-00000-0000-0000-000-000-000-000-000-000,7,PKO-13,1989,0,7.042,1.9518922207328608,7800,8.961879012677683,7906.17235059889,8673.63689765136,1.0136118398203706,0.013520030915894186,2e-4,4e-4,0.008,0.23083,0.463044,CWH,0.15947767939610902,0,FALSE,FALSE,-1.3927490533103908,-0.5934207023279994
PKO,BIG CREEK,910-500200-00000-00000-0000-0000-000-000-000-000-000-000,7,PKO-13,1991,0,7.042,1.9518922207328608,6000,8.699514748210191,6206.37627732601,7906.17235059889,1.0343960462210016,0.03381772617605717,2e-4,4e-4,0.008,0.23083,0.463044,CWH,-0.18487911555035336,0,FALSE,FALSE,-1.3927490533103908,-0.5934207023279994
PKO,BIG CREEK,910-500200-00000-00000-0000-0000-000-000-000-000-000-000,7,PKO-13,1993,0,7.042,1.9518922207328608,5800,8.66561319653451,2728.52389190336,6206.37627732601,0.47043515377644135,-0.7540971535223869,2e-4,4e-4,0.008,0.23083,0.463044,CWH,-1.7567819796155162,0,FALSE,FALSE,-1.3927490533103908,-0.5934207023279994
PKO,BIG CREEK,910-500200-00000-00000-0000-0000-000-000-000-000-000-000,7,PKO-13,2007,0,7.042,1.9518922207328608,4000,8.294049640102028,38696.7690759548,4980.85664406099,9.6741922689887,2.2694617490212243,0,1e-4,0.008,0.23083,0.463044,CWH,0.8768892458318005,0,FALSE,FALSE,-1.3927490533103908,-0.5973684269266717
PKO,BIG CREEK,910-500200-00000-00000-0000-0000-000-000-000-000-000-000,7,PKO-13,2013,0,7.042,1.9518922207328608,11000,9.305650551780507,2354.24974365584,14384.777540893,0.21402270396871273,-1.5416731762760412,0,1e-4,0.008,0.23083,0.463044,CWH,-0.5528640906240193,0,FALSE,FALSE,-1.3927490533103908,-0.5973684269266717
PKO,BIG BAY CREEK,910-503100-00000-00000-0000-0000-000-000-000-000-000-000,7,PKO-13,1971,0,15.467,2.738708722056003,1200,7.090076835776092,1382.08063491015,1552.15035841946,1.151733862425125,0.14126851338354793,0.0893,0.1367,0.016,0.2305,0.201655,CWH,-0.34080392906905344,0,FALSE,FALSE,-0.841344343687486,1.2001621736687935
PKO,BIG BAY CREEK,910-503100-00000-00000-0000-0000-000-000-000-000-000-000,7,PKO-13,1973,0,15.467,2.738708722056003,800,6.684611727667927,287.086397927999,1382.08063491015,0.35885799740999874,-1.0248285191345248,0.0893,0.1367,0.016,0.2305,0.201655,CWH,-0.20355231452664888,0,FALSE,FALSE,-0.841344343687486,1.2001621736687935
PKO,BIG BAY CREEK,910-503100-00000-00000-0000-0000-000-000-000-000-000-000,7,PKO-13,1975,0,15.467,2.738708722056003,200,5.298317366548036,1377.2781898554,287.086397927999,6.886390949277,1.929547137814886,0.0893,0.1367,0.016,0.2305,0.201655,CWH,1.2286162579398736,0,FALSE,FALSE,-0.841344343687486,1.2001621736687935
PKO,BIG BAY CREEK,910-503100-00000-00000-0000-0000-000-000-000-000-000-000,7,PKO-13,1977,0,15.467,2.738708722056003,800,6.684611727667927,504.711084297269,1377.2781898554,0.6308888553715862,-0.4606255724125502,0.031,0.0475,0.016,0.2305,0.201655,CWH,0.9724829797884954,0,FALSE,FALSE,-0.841344343687486,0.026372059663555655
PKO,BIG BAY CREEK,910-503100-00000-00000-0000-0000-000-000-000-000-000-000,7,PKO-13,1979,0,15.467,2.738708722056003,300,5.703782474656201,2337.66824103363,504.711084297269,7.792227470112099,2.053126758690327,0.031,0.0475,0.016,0.2305,0.201655,CWH,-1.19975713829789,0,FALSE,FALSE,-0.841344343687486,0.026372059663555655
PKO,BIG BAY CREEK,910-503100-00000-00000-0000-0000-000-000-000-000-000-000,7,PKO-13,1981,0,15.467,2.738708722056003,800,6.684611727667927,2062.5244135214,2337.66824103363,2.5781555169017505,0.9470742273297145,0.031,0.0475,0.016,0.2305,0.201655,CWH,-0.22613906119882837,0,FALSE,FALSE,-0.841344343687486,0.026372059663555655
PKO,BIG BAY CREEK,910-503100-00000-00000-0000-0000-000-000-000-000-000-000,7,PKO-13,1983,0,15.467,2.738708722056003,1200,7.090076835776092,909.887570251919,2062.5244135214,0.7582396418765992,-0.27675579307173914,0.031,0.0475,0.016,0.2305,0.201655,CWH,0.10267616261581472,0,FALSE,FALSE,-0.841344343687486,0.026372059663555655
PKO,BIG BAY CREEK,910-503100-00000-00000-0000-0000-000-000-000-000-000-000,7,PKO-13,1985,0,15.467,2.738708722056003,500,6.214608098422191,47.3232020653755,909.887570251919,0.094646404130751,-2.357607393271406,0.031,0.0475,0.016,0.2305,0.201655,CWH,-0.9758993397997916,0,FALSE,FALSE,-0.841344343687486,0.026372059663555655
PKO,BIG BAY CREEK,910-503100-00000-00000-0000-0000-000-000-000-000-000-000,7,PKO-13,1987,0,15.467,2.738708722056003,23,3.1354942159291497,1445.60614960856,47.3232020653755,62.852441287328695,4.140789777357917,0.0242,0.0371,0.016,0.2305,0.201655,CWH,0.8862048812919091,0,FALSE,FALSE,-0.841344343687486,-0.11048239309041827
PKO,BIG BAY CREEK,910-503100-00000-00000-0000-0000-000-000-000-000-000-000,7,PKO-13,1989,0,15.467,2.738708722056003,1300,7.170119543449628,869.678958565877,1445.60614960856,0.6689838142814438,-0.4019954130457728,0.0242,0.0371,0.016,0.2305,0.201655,CWH,0.15947767939610902,0,FALSE,FALSE,-0.841344343687486,-0.11048239309041827
PKO,BIG BAY CREEK,910-503100-00000-00000-0000-0000-000-000-000-000-000-000,7,PKO-13,1991,0,15.467,2.738708722056003,660,6.492239835020471,2568.15570096249,869.678958565877,3.8911450014583178,1.3587034591673055,0.0242,0.0371,0.016,0.2305,0.201655,CWH,-0.18487911555035336,0,FALSE,FALSE,-0.841344343687486,-0.11048239309041827
PKO,BIG BAY CREEK,910-503100-00000-00000-0000-0000-000-000-000-000-000-000,7,PKO-13,1993,0,15.467,2.738708722056003,2400,7.783224016336037,1932.70442343155,2568.15570096249,0.8052935097631458,-0.21654845961564095,0.0242,0.0371,0.016,0.2305,0.201655,CWH,-1.7567819796155162,0,FALSE,FALSE,-0.841344343687486,-0.11048239309041827
PKO,BIG BAY CREEK,910-503100-00000-00000-0000-0000-000-000-000-000-000-000,7,PKO-13,1995,0,15.467,2.738708722056003,1700,7.438383530044307,2355.20919304848,1932.70442343155,1.3854171723814588,0.3260013017810693,0.0242,0.0371,0.016,0.2305,0.201655,CWH,-0.5672147431639023,0,FALSE,FALSE,-0.841344343687486,-0.11048239309041827
PKO,BIG BAY CREEK,910-503100-00000-00000-0000-0000-000-000-000-000-000-000,7,PKO-13,1997,0,15.467,2.738708722056003,2000,7.600902459542082,874.731317801778,2355.20919304848,0.437365658900889,-0.8269856857080882,0.0066,0.0101,0.016,0.2305,0.201655,CWH,0.8907774948170872,0,FALSE,FALSE,-0.841344343687486,-0.46577760697092757
PKO,BIG BAY CREEK,910-503100-00000-00000-0000-0000-000-000-000-000-000-000,7,PKO-13,2003,0,15.467,2.738708722056003,3000,8.006367567650246,969.914373765585,4426.42063668596,0.323304791255195,-1.1291597745177075,0.0066,0.0101,0.016,0.2305,0.201655,CWH,0.41101277747559006,0,FALSE,FALSE,-0.841344343687486,-0.46577760697092757
PKO,BIG BAY CREEK,910-503100-00000-00000-0000-0000-000-000-000-000-000-000,7,PKO-13,2005,0,15.467,2.738708722056003,650,6.476972362889683,6724.15646948234,969.914373765585,10.344856106895907,2.3364894016658644,0.0066,0.0101,0.016,0.2305,0.201655,CWH,-0.8145696192436794,0,FALSE,FALSE,-0.841344343687486,-0.46577760697092757
PKO,BIG BAY CREEK,910-503100-00000-00000-0000-0000-000-000-000-000-000-000,7,PKO-13,2007,0,15.467,2.738708722056003,5400,8.594154232552366,8900.2568874696,6724.15646948234,1.6481957199017778,0.4996811865119444,4e-4,7e-4,0.016,0.2305,0.201655,CWH,0.8768892458318005,0,FALSE,FALSE,-0.841344343687486,-0.589472977729327
PKO,BIG BAY CREEK,910-503100-00000-00000-0000-0000-000-000-000-000-000-000,7,PKO-13,2009,0,15.467,2.738708722056003,6900,8.83927669058535,2018.61340144043,8900.2568874696,0.29255266687542464,-1.2291105708249073,4e-4,7e-4,0.016,0.2305,0.201655,CWH,1.604652193542091,0,FALSE,FALSE,-0.841344343687486,-0.589472977729327
PKO,BIG BAY CREEK,910-503100-00000-00000-0000-0000-000-000-000-000-000-000,7,PKO-13,2011,0,15.467,2.738708722056003,1700,7.438383530044307,11377.0513277972,2018.61340144043,6.692383133998353,1.900970034025814,4e-4,7e-4,0.016,0.2305,0.201655,CWH,0.7408851700104637,0,FALSE,FALSE,-0.841344343687486,-0.589472977729327
PKO,BIG BAY CREEK,910-503100-00000-00000-0000-0000-000-000-000-000-000-000,7,PKO-13,2013,0,15.467,2.738708722056003,8700,9.071078304642676,1401.33913312847,11377.0513277972,0.16107346357798505,-1.8258947225533808,4e-4,7e-4,0.016,0.2305,0.201655,CWH,-0.5528640906240193,0,FALSE,FALSE,-0.841344343687486,-0.589472977729327
PKO,KORICH CREEK,910-508100-00000-00000-0000-0000-000-000-000-000-000-000,7,PKO-13,1955,0,23.391,3.1523513329955724,750,6.620073206530356,354.364168730726,1435.15992521883,0.47248555830763467,-0.7497480969437277,0.024,0.0397,0.087,0.23954,0.261275,CWH,-0.07106879047729574,0,FALSE,FALSE,-0.5514616538999212,-0.07626877990192481
PKO,KORICH CREEK,910-508100-00000-00000-0000-0000-000-000-000-000-000-000,7,PKO-13,1957,0,23.391,3.1523513329955724,200,5.298317366548036,4813.59611720924,354.364168730726,24.0679805860462,3.180882350728488,0.0162,0.0268,0.087,0.23954,0.261275,CWH,-0.3276691034772351,0,FALSE,FALSE,-0.5514616538999212,-0.24602093764483476
PKO,KORICH CREEK,910-508100-00000-00000-0000-0000-000-000-000-000-000-000,7,PKO-13,1959,0,23.391,3.1523513329955724,3500,8.160518247477505,14769.9783537302,4813.59611720924,4.2199938153514855,1.4398336624903265,0.0162,0.0268,0.087,0.23954,0.261275,CWH,0.7824977620566573,0,FALSE,FALSE,-0.5514616538999212,-0.24602093764483476
PKO,KORICH CREEK,910-508100-00000-00000-0000-0000-000-000-000-000-000-000,7,PKO-13,1961,0,23.391,3.1523513329955724,7500,8.922658299524402,2943.41444093009,14769.9783537302,0.3924552587906787,-0.9353327385992866,0.0162,0.0268,0.087,0.23954,0.261275,CWH,0.00583928468743269,0,FALSE,FALSE,-0.5514616538999212,-0.24602093764483476
PKO,KORICH CREEK,910-508100-00000-00000-0000-0000-000-000-000-000-000-000,7,PKO-13,1963,0,23.391,3.1523513329955724,1500,7.313220387090301,304.005952096055,2943.41444093009,0.20267063473070335,-1.596173106612412,0.0154,0.0256,0.087,0.23954,0.261275,CWH,0.5797944041154652,0,FALSE,FALSE,-0.5514616538999212,-0.26181183603952407
PKO,KORICH CREEK,910-508100-00000-00000-0000-0000-000-000-000-000-000-000,7,PKO-13,1965,0,23.391,3.1523513329955724,100,4.605170185988092,109.121709983172,304.005952096055,1.0912170998317199,0.08729367865117571,0.0154,0.0256,0.087,0.23954,0.261275,CWH,-0.7093794641235007,0,FALSE,FALSE,-0.5514616538999212,-0.26181183603952407
PKO,KORICH CREEK,910-508100-00000-00000-0000-0000-000-000-000-000-000-000,7,PKO-13,1967,0,23.391,3.1523513329955724,75,4.31748811353631,70.1391372041649,109.121709983172,0.935188496055532,-0.06700716995261874,0.0446,0.074,0.087,0.23954,0.261275,CWH,-0.48089809283299456,0,FALSE,FALSE,-0.5514616538999212,0.37508773254627764
PKO,KORICH CREEK,910-508100-00000-00000-0000-0000-000-000-000-000-000-000,7,PKO-13,1969,0,23.391,3.1523513329955724,60,4.0943445622221,258.691726403243,70.1391372041649,4.3115287733873835,1.4612925450253116,0.0446,0.074,0.087,0.23954,0.261275,CWH,0.09673401232408343,0,FALSE,FALSE,-0.5514616538999212,0.37508773254627764
PKO,KORICH CREEK,910-508100-00000-00000-0000-0000-000-000-000-000-000-000,7,PKO-13,1977,0,23.391,3.1523513329955724,2500,7.824046010856292,21870.8136528817,4303.99434329811,8.74832546115268,2.16886230618656,0.0279,0.0462,0.087,0.23954,0.261275,CWH,0.9724829797884954,0,FALSE,FALSE,-0.5514616538999212,0.009265253069308881
PKO,KORICH CREEK,910-508100-00000-00000-0000-0000-000-000-000-000-000-000,7,PKO-13,1979,0,23.391,3.1523513329955724,13000,9.472704636443673,63701.4595681664,21870.8136528817,4.900112274474338,1.5892581180121068,0.0279,0.0462,0.087,0.23954,0.261275,CWH,-1.19975713829789,0,FALSE,FALSE,-0.5514616538999212,0.009265253069308881
PKO,KORICH CREEK,910-508100-00000-00000-0000-0000-000-000-000-000-000-000,7,PKO-13,1981,0,23.391,3.1523513329955724,21800,9.98966524877718,27500.3255136186,63701.4595681664,1.261482821725624,0.2322878716662855,0.0279,0.0462,0.087,0.23954,0.261275,CWH,-0.22613906119882837,0,FALSE,FALSE,-0.5514616538999212,0.009265253069308881
PKO,KORICH CREEK,910-508100-00000-00000-0000-0000-000-000-000-000-000-000,7,PKO-13,1983,0,23.391,3.1523513329955724,16000,9.680344001221918,49133.9287936036,27500.3255136186,3.070870549600225,1.1219610880467081,0.0276,0.0457,0.087,0.23954,0.261275,CWH,0.10267616261581472,0,FALSE,FALSE,-0.5514616538999212,0.0026857120715216673
PKO,KORICH CREEK,910-508100-00000-00000-0000-0000-000-000-000-000-000-000,7,PKO-13,1985,0,23.391,3.1523513329955724,27000,10.203592144986466,21604.0705081062,49133.9287936036,0.8001507595594889,-0.22295511961921563,0.0276,0.0457,0.087,0.23954,0.261275,CWH,-0.9758993397997916,0,FALSE,FALSE,-0.5514616538999212,0.0026857120715216673
PKO,KORICH CREEK,910-508100-00000-00000-0000-0000-000-000-000-000-000-000,7,PKO-13,1987,0,23.391,3.1523513329955724,10500,9.259130536145614,27800.1182617031,21604.0705081062,2.6476303106383905,0.9736650175421625,0.0146,0.0242,0.087,0.23954,0.261275,CWH,0.8862048812919091,0,FALSE,FALSE,-0.5514616538999212,-0.28023455083332827
PKO,KORICH CREEK,910-508100-00000-00000-0000-0000-000-000-000-000-000-000,7,PKO-13,1989,0,23.391,3.1523513329955724,25000,10.126631103850338,22400.8216600302,27800.1182617031,0.896032866401208,-0.10977818542859896,0.0146,0.0242,0.087,0.23954,0.261275,CWH,0.15947767939610902,0,FALSE,FALSE,-0.5514616538999212,-0.28023455083332827
PKO,KORICH CREEK,910-508100-00000-00000-0000-0000-000-000-000-000-000-000,7,PKO-13,1991,0,23.391,3.1523513329955724,17000,9.740968623038354,18726.1353195181,22400.8216600302,1.1015373717363588,0.09670681472498908,0.0146,0.0242,0.087,0.23954,0.261275,CWH,-0.18487911555035336,0,FALSE,FALSE,-0.5514616538999212,-0.28023455083332827
PKO,KORICH CREEK,910-508100-00000-00000-0000-0000-000-000-000-000-000-000,7,PKO-13,1997,0,23.391,3.1523513329955724,25000,10.126631103850338,4373.65658900889,29440.1149131059,0.17494626356035559,-1.7432764175822435,0.0116,0.0192,0.087,0.23954,0.261275,CWH,0.8907774948170872,0,FALSE,FALSE,-0.5514616538999212,-0.34602996081120035
PKO,KORICH CREEK,910-508100-00000-00000-0000-0000-000-000-000-000-000-000,7,PKO-13,2003,0,23.391,3.1523513329955724,12000,9.392661928770137,6714.79181837713,17705.6825467438,0.5595659848647608,-0.5805938227688693,0.0116,0.0192,0.087,0.23954,0.261275,CWH,0.41101277747559006,0,FALSE,FALSE,-0.5514616538999212,-0.34602996081120035
PKO,KORICH CREEK,910-508100-00000-00000-0000-0000-000-000-000-000-000-000,7,PKO-13,2005,0,23.391,3.1523513329955724,4500,8.411832675758411,11206.9274491372,6714.79181837713,2.490428322030489,0.9124547125631237,0.0116,0.0192,0.087,0.23954,0.261275,CWH,-0.8145696192436794,0,FALSE,FALSE,-0.5514616538999212,-0.34602996081120035
PKO,KORICH CREEK,910-508100-00000-00000-0000-0000-000-000-000-000-000-000,7,PKO-13,2007,0,23.391,3.1523513329955724,9000,9.104979856318357,32247.3075632956,11206.9274491372,3.583034173699511,1.276209976010939,0.0026,0.0043,0.087,0.23954,0.261275,CWH,0.8768892458318005,0,FALSE,FALSE,-0.5514616538999212,-0.5421002825452592
PKO,KORICH CREEK,910-508100-00000-00000-0000-0000-000-000-000-000-000-000,7,PKO-13,2009,0,23.391,3.1523513329955724,25000,10.126631103850338,13655.3259509206,32247.3075632956,0.546213038036824,-0.6047461997828573,0.0026,0.0043,0.087,0.23954,0.261275,CWH,1.604652193542091,0,FALSE,FALSE,-0.5514616538999212,-0.5421002825452592
PKO,POISON COVE CREEK,910-513400-00000-00000-0000-0000-000-000-000-000-000-000,7,PKO-13,1955,0,99.169,4.596825465452527,75,4.31748811353631,132.886563274022,143.515992521883,1.7718208436536267,0.5720077430385899,0.0322,0.061,0.034,0.22222,0.162834,CWH,-0.07106879047729574,0.00126798437813204,FALSE,FALSE,0.46083262084624294,0.20401966660381027
PKO,POISON COVE CREEK,910-513400-00000-00000-0000-0000-000-000-000-000-000-000,7,PKO-13,1957,0,99.169,4.596825465452527,75,4.31748811353631,34.3828294086374,132.886563274022,0.45843772544849865,-0.779930818869091,0.0273,0.0517,0.034,0.22222,0.162834,CWH,-0.3276691034772351,0.00126798437813204,FALSE,FALSE,0.46083262084624294,0.08164020404496823
PKO,POISON COVE CREEK,910-513400-00000-00000-0000-0000-000-000-000-000-000-000,7,PKO-13,1959,0,99.169,4.596825465452527,25,3.2188758248682006,393.866089432806,34.3828294086374,15.75464357731224,2.757135152123267,0.0273,0.0517,0.034,0.22222,0.162834,CWH,0.7824977620566573,0.00126798437813204,FALSE,FALSE,0.46083262084624294,0.08164020404496823