Species,River,WATERSHED_CDE,DFO,CU,BroodYear,hararea_m2_3005,area_km2,ln_area_km2,Spawners,logS,Recruits,Returns,recruitPerSpawner,ln_RS,ECA_age_proxy,ECA_age_proxy_forested_only,lake_cover_pct,var_eaubc_KFACTOR,var_eaubc_MELTONS_R,vri_bec_zone,npgo,portion_reporting_vri_cover1_missing,hatchery_enhancement,year_of_enhacement,ln_area_km2_std,ECA_age_proxy_forested_only_std
PKO,TURN CREEK,915-541700-29400-00000-0000-0000-000-000-000-000-000-000,6,PKO-12,1987,0,9.571,2.2587376932137695,5000,8.517193191416238,8942.54512410356,9064.22322667029,1.788509024820712,0.5813823257319997,0,0,0.013,0.22466,0.103282,CWH,0.8862048812919091,0,FALSE,FALSE,-1.1777103011135168,-0.5986843351262291
PKO,TURN CREEK,915-541700-29400-00000-0000-0000-000-000-000-000-000-000,6,PKO-12,1989,0,9.571,2.2587376932137695,7500,8.922658299524402,19858.0809901734,8942.54512410356,2.64774413202312,0.9737080065265976,0,0,0.013,0.22466,0.103282,CWH,0.15947767939610902,0,FALSE,FALSE,-1.1777103011135168,-0.5986843351262291
PKO,TURN CREEK,915-541700-29400-00000-0000-0000-000-000-000-000-000-000,6,PKO-12,1991,0,9.571,2.2587376932137695,14000,9.546812608597396,4379.20543856676,19858.0809901734,0.3128003884690543,-1.1621900284030109,0,0,0.013,0.22466,0.103282,CWH,-0.18487911555035336,0,FALSE,FALSE,-1.1777103011135168,-0.5986843351262291
PKO,TURN CREEK,915-541700-29400-00000-0000-0000-000-000-000-000-000-000,6,PKO-12,1993,0,9.571,2.2587376932137695,3500,8.160518247477505,29700.5714201046,4379.20543856676,8.485877548601314,2.1384033168623664,0,0,0.013,0.22466,0.103282,CWH,-1.7567819796155162,0,FALSE,FALSE,-1.1777103011135168,-0.5986843351262291
PKO,TURN CREEK,915-541700-29400-00000-0000-0000-000-000-000-000-000-000,6,PKO-12,1995,0,9.571,2.2587376932137695,25000,10.126631103850338,18301.0708920817,29700.5714201046,0.7320428356832681,-0.3119162480399882,0,0,0.013,0.22466,0.103282,CWH,-0.5672147431639023,0,FALSE,FALSE,-1.1777103011135168,-0.5986843351262291
PKO,TURN CREEK,915-541700-29400-00000-0000-0000-000-000-000-000-000-000,6,PKO-12,1997,0,9.571,2.2587376932137695,16000,9.680344001221918,28276.057105117,18301.0708920817,1.7672535690698126,0.5694266856282466,0,0,0.013,0.22466,0.103282,CWH,0.8907774948170872,0,FALSE,FALSE,-1.1777103011135168,-0.5986843351262291
PKO,TURN CREEK,915-541700-29400-00000-0000-0000-000-000-000-000-000-000,6,PKO-12,1999,0,9.571,2.2587376932137695,25000,10.126631103850338,57533.3136424502,28276.057105117,2.301332545698008,0.833488322861224,0,0,0.013,0.22466,0.103282,CWH,1.6302835492491898,0,FALSE,FALSE,-1.1777103011135168,-0.5986843351262291
PKO,TURN CREEK,915-541700-29400-00000-0000-0000-000-000-000-000-000-000,6,PKO-12,2001,0,9.571,2.2587376932137695,45000,10.714417768752456,15611.1799297715,57533.3136424502,0.3469151095504778,-1.0586751700296901,0,0,0.013,0.22466,0.103282,CWH,1.9190067210816288,0,FALSE,FALSE,-1.1777103011135168,-0.5986843351262291
PKO,TURN CREEK,915-541700-29400-00000-0000-0000-000-000-000-000-000-000,6,PKO-12,2003,0,9.571,2.2587376932137695,12500,9.433483923290392,62448.7087678451,15611.1799297715,4.995896701427608,1.6086169157940917,0,0,0.013,0.22466,0.103282,CWH,0.41101277747559006,0,FALSE,FALSE,-1.1777103011135168,-0.5986843351262291
PKO,TURN CREEK,915-541700-29400-00000-0000-0000-000-000-000-000-000-000,6,PKO-12,2005,0,9.571,2.2587376932137695,50000,10.819778284410283,48934.1997312044,62448.7087678451,0.978683994624088,-0.02154647239402024,0,0,0.013,0.22466,0.103282,CWH,-0.8145696192436794,0,FALSE,FALSE,-1.1777103011135168,-0.5986843351262291
PKO,TURN CREEK,915-541700-29400-00000-0000-0000-000-000-000-000-000-000,6,PKO-12,2007,0,9.571,2.2587376932137695,42000,10.645424897265505,58189.8888273911,48934.1997312044,1.385473543509312,0.32604198987283534,0,0,0.013,0.22466,0.103282,CWH,0.8768892458318005,0,FALSE,FALSE,-1.1777103011135168,-0.5986843351262291
PKO,TURN CREEK,915-541700-29400-00000-0000-0000-000-000-000-000-000-000,6,PKO-12,2009,0,9.571,2.2587376932137695,50000,10.819778284410283,12879.3929658976,58189.8888273911,0.257587859317952,-1.3563944158394852,0,0,0.013,0.22466,0.103282,CWH,1.604652193542091,0,FALSE,FALSE,-1.1777103011135168,-0.5986843351262291
PKO,TURN CREEK,915-541700-29400-00000-0000-0000-000-000-000-000-000-000,6,PKO-12,2011,0,9.571,2.2587376932137695,11300,9.332558004700433,27442.9309351023,12879.3929658976,2.4285779588586105,0.8873058839390684,0,0,0.013,0.22466,0.103282,CWH,0.7408851700104637,0,FALSE,FALSE,-1.1777103011135168,-0.5986843351262291
PKO,TURN CREEK,915-541700-29400-00000-0000-0000-000-000-000-000-000-000,6,PKO-12,2013,0,9.571,2.2587376932137695,22700,10.030120203469494,992.178656788968,27442.9309351023,0.043708310871760706,-3.1302170148307176,0,0,0.013,0.22466,0.103282,CWH,-0.5528640906240193,0,FALSE,FALSE,-1.1777103011135168,-0.5986843351262291
PKO,CRANE BAY CREEK,915-541700-30600-00000-0000-0000-000-000-000-000-000-000,6,PKO-12,1979,0,12.532,2.5282853730899455,30,3.4011973816621555,1655.52517538096,45.4104773384386,55.184172512698666,4.010676182325773,0.0014,0.0017,0.006,0.22432,0.190961,CWH,-1.19975713829789,0,FALSE,FALSE,-0.9888100176272039,-0.5763138957337526
PKO,CRANE BAY CREEK,915-541700-30600-00000-0000-0000-000-000-000-000-000-000,6,PKO-12,1981,0,12.532,2.5282853730899455,800,6.684611727667927,754.785261570259,1655.52517538096,0.9434815769628238,-0.05817844063568922,0.0014,0.0017,0.006,0.22432,0.190961,CWH,-0.22613906119882837,0,FALSE,FALSE,-0.9888100176272039,-0.5763138957337526
PKO,CRANE BAY CREEK,915-541700-30600-00000-0000-0000-000-000-000-000-000-000,6,PKO-12,1983,0,12.532,2.5282853730899455,500,6.214608098422191,9689.37452708686,754.785261570259,19.37874905417372,2.96417705609104,0.0014,0.0017,0.006,0.22432,0.190961,CWH,0.10267616261581472,0,FALSE,FALSE,-0.9888100176272039,-0.5763138957337526
PKO,CRANE BAY CREEK,915-541700-30600-00000-0000-0000-000-000-000-000-000-000,6,PKO-12,1985,0,12.532,2.5282853730899455,6000,8.699514748210191,1812.84464533406,9689.37452708686,0.3021407742223433,-1.1968622304075942,0.0014,0.0017,0.006,0.22432,0.190961,CWH,-0.9758993397997916,0,FALSE,FALSE,-0.9888100176272039,-0.5763138957337526
PKO,CRANE BAY CREEK,915-541700-30600-00000-0000-0000-000-000-000-000-000-000,6,PKO-12,1987,0,12.532,2.5282853730899455,1000,6.907755278982137,238.467869976095,1812.84464533406,0.23846786997609498,-1.433520694810265,0.0014,0.0017,0.006,0.22432,0.190961,CWH,0.8862048812919091,0,FALSE,FALSE,-0.9888100176272039,-0.5763138957337526
PKO,CRANE BAY CREEK,915-541700-30600-00000-0000-0000-000-000-000-000-000-000,6,PKO-12,1989,0,12.532,2.5282853730899455,200,5.298317366548036,1560.27779208505,238.467869976095,7.80138896042525,2.054301789692027,3e-4,3e-4,0.006,0.22432,0.190961,CWH,0.15947767939610902,0,FALSE,FALSE,-0.9888100176272039,-0.5947366105275568
PKO,CRANE BAY CREEK,915-541700-30600-00000-0000-0000-000-000-000-000-000-000,6,PKO-12,1991,0,12.532,2.5282853730899455,1100,7.003065458786462,62.560077693810896,1560.27779208505,0.05687279790346445,-2.8669381206414353,3e-4,3e-4,0.006,0.22432,0.190961,CWH,-0.18487911555035336,0,FALSE,FALSE,-0.9888100176272039,-0.5947366105275568
PKO,CRANE BAY CREEK,915-541700-30600-00000-0000-0000-000-000-000-000-000-000,6,PKO-12,1993,0,12.532,2.5282853730899455,50,3.912023005428146,130.68251424846,62.560077693810896,2.6136502849692,0.9607478208538018,3e-4,3e-4,0.006,0.22432,0.190961,CWH,-1.7567819796155162,0,FALSE,FALSE,-0.9888100176272039,-0.5947366105275568
PKO,CRANE BAY CREEK,915-541700-30600-00000-0000-0000-000-000-000-000-000-000,6,PKO-12,1995,0,12.532,2.5282853730899455,110,4.700480365792417,686.290158453062,130.68251424846,6.239001440482381,1.8308201440121588,3e-4,3e-4,0.006,0.22432,0.190961,CWH,-0.5672147431639023,0,FALSE,FALSE,-0.9888100176272039,-0.5947366105275568
PKO,CRANE BAY CREEK,915-541700-30600-00000-0000-0000-000-000-000-000-000-000,6,PKO-12,1997,0,12.532,2.5282853730899455,600,6.396929655216146,1696.56342630702,686.290158453062,2.8276057105117003,1.039430314873982,3e-4,3e-4,0.006,0.22432,0.190961,CWH,0.8907774948170872,0,FALSE,FALSE,-0.9888100176272039,-0.5947366105275568
PKO,CRANE BAY CREEK,915-541700-30600-00000-0000-0000-000-000-000-000-000-000,6,PKO-12,1999,0,12.532,2.5282853730899455,1500,7.313220387090301,3196.29520235834,1696.56342630702,2.130863468238893,0.7565272817250941,0,0,0.006,0.22432,0.190961,CWH,1.6302835492491898,0,FALSE,FALSE,-0.9888100176272039,-0.5986843351262291
PKO,CRANE BAY CREEK,915-541700-30600-00000-0000-0000-000-000-000-000-000-000,6,PKO-12,2001,0,12.532,2.5282853730899455,2500,7.824046010856292,1873.34159157258,3196.29520235834,0.749336636629032,-0.28856694833361646,0,0,0.006,0.22432,0.190961,CWH,1.9190067210816288,0,FALSE,FALSE,-0.9888100176272039,-0.5986843351262291
PKO,CRANE BAY CREEK,915-541700-30600-00000-0000-0000-000-000-000-000-000-000,6,PKO-12,2003,0,12.532,2.5282853730899455,1500,7.313220387090301,1686.11513673182,1873.34159157258,1.1240767578212134,0.11696203901637625,0,0,0.006,0.22432,0.190961,CWH,0.41101277747559006,0,FALSE,FALSE,-0.9888100176272039,-0.5986843351262291
PKO,CRANE BAY CREEK,915-541700-30600-00000-0000-0000-000-000-000-000-000-000,6,PKO-12,2005,0,12.532,2.5282853730899455,1350,7.2078598714324755,524.294997120048,1686.11513673182,0.38836666453336893,-0.9458053739173504,0,0,0.006,0.22432,0.190961,CWH,-0.8145696192436794,0,FALSE,FALSE,-0.9888100176272039,-0.5986843351262291
PKO,CRANE BAY CREEK,915-541700-30600-00000-0000-0000-000-000-000-000-000-000,6,PKO-12,2007,0,12.532,2.5282853730899455,450,6.1092475827643655,3142.25399667912,524.294997120048,6.982786659286933,1.9434480719561127,0,0,0.006,0.22432,0.190961,CWH,0.8768892458318005,0,FALSE,FALSE,-0.9888100176272039,-0.5986843351262291
PKO,CRANE BAY CREEK,915-541700-30600-00000-0000-0000-000-000-000-000-000-000,6,PKO-12,2009,0,12.532,2.5282853730899455,2700,7.90100705199242,1253.74621791924,3142.25399667912,0.46435045108120004,-0.7671157293355888,0,0,0.006,0.22432,0.190961,CWH,1.604652193542091,0,FALSE,FALSE,-0.9888100176272039,-0.5986843351262291
PKO,CRANE BAY CREEK,915-541700-30600-00000-0000-0000-000-000-000-000-000-000,6,PKO-12,2011,0,12.532,2.5282853730899455,1100,7.003065458786462,2242.58312267025,1253.74621791924,2.038711929700227,0.7123182014250781,0,0,0.006,0.22432,0.190961,CWH,0.7408851700104637,0,FALSE,FALSE,-0.9888100176272039,-0.5986843351262291
PKO,CRANE BAY CREEK,915-541700-30600-00000-0000-0000-000-000-000-000-000-000,6,PKO-12,2013,0,12.532,2.5282853730899455,1855,7.5256399750415355,17.106528565327,2242.58312267025,0.009221848283195149,-4.6861797969491805,0,0,0.006,0.22432,0.190961,CWH,-0.5528640906240193,0,FALSE,FALSE,-0.9888100176272039,-0.5986843351262291
PKO,TURTLE CREEK,915-541700-45000-00000-0000-0000-000-000-000-000-000-000,6,PKO-12,1963,0,15.856,2.763547977587632,25,3.2188758248682006,968.114069163211,45.1151879444682,38.724562766528436,3.656474095510423,0.0077,0.0085,0,0.2229,0.085275,CWH,0.5797944041154652,0,FALSE,FALSE,-0.8239368764309725,-0.4868321381638466
PKO,TURTLE CREEK,915-541700-45000-00000-0000-0000-000-000-000-000-000-000,6,PKO-12,1965,0,15.856,2.763547977587632,400,5.991464547107982,434.151273464237,968.114069163211,1.0853781836605925,0.08192848262997313,0.0077,0.0085,0,0.2229,0.085275,CWH,-0.7093794641235007,0,FALSE,FALSE,-0.8239368764309725,-0.4868321381638466
PKO,TURTLE CREEK,915-541700-45000-00000-0000-0000-000-000-000-000-000-000,6,PKO-12,1967,0,15.856,2.763547977587632,200,5.298317366548036,358.632285844636,434.151273464237,1.79316142922318,0.5839802236004833,0.0077,0.0085,0,0.2229,0.085275,CWH,-0.48089809283299456,0,FALSE,FALSE,-0.8239368764309725,-0.4868321381638466
PKO,TURTLE CREEK,915-541700-45000-00000-0000-0000-000-000-000-000-000-000,6,PKO-12,1969,0,15.856,2.763547977587632,200,5.298317366548036,104.539110915797,358.632285844636,0.522695554578985,-0.6487560980268321,0.0072,0.008,0,0.2229,0.085275,CWH,0.09673401232408343,0,FALSE,FALSE,-0.8239368764309725,-0.4934116791616338
PKO,TURTLE CREEK,915-541700-45000-00000-0000-0000-000-000-000-000-000-000,6,PKO-12,1977,0,15.856,2.763547977587632,75,4.31748811353631,1513.68257794795,146.839438785695,20.18243437263933,3.0048126405854423,0.0072,0.008,0,0.2229,0.085275,CWH,0.9724829797884954,0,FALSE,FALSE,-0.8239368764309725,-0.4934116791616338
PKO,TURTLE CREEK,915-541700-45000-00000-0000-0000-000-000-000-000-000-000,6,PKO-12,1979,0,15.856,2.763547977587632,1000,6.907755278982137,12416.4388153572,1513.68257794795,12.4164388153572,2.5190213055480566,0.0024,0.0027,0,0.2229,0.085275,CWH,-1.19975713829789,0,FALSE,FALSE,-0.8239368764309725,-0.5631548137381782
PKO,TURTLE CREEK,915-541700-45000-00000-0000-0000-000-000-000-000-000-000,6,PKO-12,1981,0,15.856,2.763547977587632,6000,8.699514748210191,2264.35578471078,12416.4388153572,0.37739263078512997,-0.974469172509843,0.0024,0.0027,0,0.2229,0.085275,CWH,-0.22613906119882837,0,FALSE,FALSE,-0.8239368764309725,-0.5631548137381782
PKO,TURTLE CREEK,915-541700-45000-00000-0000-0000-000-000-000-000-000-000,6,PKO-12,1983,0,15.856,2.763547977587632,1500,7.313220387090301,64595.8301805791,2264.35578471078,43.06388678705273,3.7626847523088123,0.0016,0.0018,0,0.2229,0.085275,CWH,0.10267616261581472,0,FALSE,FALSE,-0.8239368764309725,-0.5749979875341952
PKO,TURTLE CREEK,915-541700-45000-00000-0000-0000-000-000-000-000-000-000,6,PKO-12,1985,0,15.856,2.763547977587632,40000,10.596634733096073,9064.22322667029,64595.8301805791,0.22660558066675726,-1.484544302859376,0.0016,0.0018,0,0.2229,0.085275,CWH,-0.9758993397997916,0,FALSE,FALSE,-0.8239368764309725,-0.5749979875341952
PKO,TURTLE CREEK,915-541700-45000-00000-0000-0000-000-000-000-000-000-000,6,PKO-12,1987,0,15.856,2.763547977587632,5000,8.517193191416238,8346.37544916332,9064.22322667029,1.6692750898326643,0.512389454245048,0.0016,0.0018,0,0.2229,0.085275,CWH,0.8862048812919091,0,FALSE,FALSE,-0.8239368764309725,-0.5749979875341952
PKO,TURTLE CREEK,915-541700-45000-00000-0000-0000-000-000-000-000-000-000,6,PKO-12,1989,0,15.856,2.763547977587632,7000,8.85366542803745,9929.0404950867,8346.37544916332,1.4184343564409572,0.3495536974536039,2e-4,3e-4,0,0.2229,0.085275,CWH,0.15947767939610902,0,FALSE,FALSE,-0.8239368764309725,-0.5947366105275568
PKO,TURTLE CREEK,915-541700-45000-00000-0000-0000-000-000-000-000-000-000,6,PKO-12,1991,0,15.856,2.763547977587632,7000,8.85366542803745,25024.0310775244,9929.0404950867,3.5748615825034857,1.2739264572155597,2e-4,3e-4,0,0.2229,0.085275,CWH,-0.18487911555035336,0,FALSE,FALSE,-0.8239368764309725,-0.5947366105275568
PKO,TURTLE CREEK,915-541700-45000-00000-0000-0000-000-000-000-000-000-000,6,PKO-12,1993,0,15.856,2.763547977587632,20000,9.903487552536127,29700.5714201046,25024.0310775244,1.48502857100523,0.39543401180374327,1e-4,1e-4,0,0.2229,0.085275,CWH,-1.7567819796155162,0,FALSE,FALSE,-0.8239368764309725,-0.5973684269266717
PKO,TURTLE CREEK,915-541700-45000-00000-0000-0000-000-000-000-000-000-000,6,PKO-12,1995,0,15.856,2.763547977587632,25000,10.126631103850338,9150.53544604083,29700.5714201046,0.3660214178416332,-1.0050634285999358,1e-4,1e-4,0,0.2229,0.085275,CWH,-0.5672147431639023,0,FALSE,FALSE,-0.8239368764309725,-0.5973684269266717
PKO,TURTLE CREEK,915-541700-45000-00000-0000-0000-000-000-000-000-000-000,6,PKO-12,1997,0,15.856,2.763547977587632,8000,8.987196820661973,23751.8879682983,9150.53544604083,2.9689859960372873,1.088220479043415,1e-4,1e-4,0,0.2229,0.085275,CWH,0.8907774948170872,0,FALSE,FALSE,-0.8239368764309725,-0.5973684269266717
PKO,TURTLE CREEK,915-541700-45000-00000-0000-0000-000-000-000-000-000-000,6,PKO-12,1999,0,15.856,2.763547977587632,21000,9.95227771670556,38355.5424283001,23751.8879682983,1.8264544013476236,0.6023766018978363,0,0,0,0.2229,0.085275,CWH,1.6302835492491898,0,FALSE,FALSE,-0.8239368764309725,-0.5986843351262291
PKO,TURTLE CREEK,915-541700-45000-00000-0000-0000-000-000-000-000-000-000,6,PKO-12,2001,0,15.856,2.763547977587632,30000,10.308952660644293,21231.2047044893,38355.5424283001,0.7077068234829766,-0.3457253621735623,0,0,0,0.2229,0.085275,CWH,1.9190067210816288,0,FALSE,FALSE,-0.8239368764309725,-0.5986843351262291
PKO,TURTLE CREEK,915-541700-45000-00000-0000-0000-000-000-000-000-000-000,6,PKO-12,2003,0,15.856,2.763547977587632,17000,9.740968623038354,49958.967014276,21231.2047044893,2.938762765545647,1.0779886647319197,0,0,0,0.2229,0.085275,CWH,0.41101277747559006,0,FALSE,FALSE,-0.8239368764309725,-0.5986843351262291
PKO,TURTLE CREEK,915-541700-45000-00000-0000-0000-000-000-000-000-000-000,6,PKO-12,2005,0,15.856,2.763547977587632,40000,10.596634733096073,29127.4998400026,49958.967014276,0.728187496000065,-0.31719671449497855,0,0,0,0.2229,0.085275,CWH,-0.8145696192436794,0,FALSE,FALSE,-0.8239368764309725,-0.5986843351262291
PKO,TURTLE CREEK,915-541700-45000-00000-0000-0000-000-000-000-000-000-000,6,PKO-12,2007,0,15.856,2.763547977587632,25000,10.126631103850338,34913.9332964347,29127.4998400026,1.3965573318573878,0.3340101595220132,0,0,0,0.2229,0.085275,CWH,0.8768892458318005,0,FALSE,FALSE,-0.8239368764309725,-0.5986843351262291
PKO,TURTLE CREEK,915-541700-45000-00000-0000-0000-000-000-000-000-000-000,6,PKO-12,2009,0,15.856,2.763547977587632,30000,10.308952660644293,14133.1391838169,34913.9332964347,0.47110463946056336,-0.7526750451807935,0,0,0,0.2229,0.085275,CWH,1.604652193542091,0,FALSE,FALSE,-0.8239368764309725,-0.5986843351262291
PKO,TURTLE CREEK,915-541700-45000-00000-0000-0000-000-000-000-000-000-000,6,PKO-12,2011,0,15.856,2.763547977587632,12400,9.425451751593128,45939.708173299,14133.1391838169,3.7048151752660483,1.3096333722854008,0,0,0,0.2229,0.085275,CWH,0.7408851700104637,0,FALSE,FALSE,-0.8239368764309725,-0.5986843351262291
PKO,TURTLE CREEK,915-541700-45000-00000-0000-0000-000-000-000-000-000-000,6,PKO-12,2013,0,15.856,2.763547977587632,38000,10.545341438708522,2029.97472308547,45939.708173299,0.053420387449617635,-2.929562818432247,0,0,0,0.2229,0.085275,CWH,-0.5528640906240193,0,FALSE,FALSE,-0.8239368764309725,-0.5986843351262291
PKO,RIORDAN CREEK,915-566500-58300-00000-0000-0000-000-000-000-000-000-000,6,PKO-13,1959,0,15.135,2.7170099424736818,25,3.2188758248682006,6892.6565650741,34.3828294086374,275.706262602964,5.619336033052735,0.0466,0.0776,0.002,0.2202,0.079193,CWH,0.7824977620566573,0,FALSE,FALSE,-0.8565509506087196,0.42246042773034564
PKO,RIORDAN CREEK,915-566500-58300-00000-0000-0000-000-000-000-000-000-000,6,PKO-13,1977,0,15.135,2.7170099424736818,20,2.995732273553991,1009.42216859454,34.4319547463849,50.471108429727,3.9214010622613333,0.0349,0.0581,0.002,0.2202,0.079193,CWH,0.9724829797884954,0,FALSE,FALSE,-0.8565509506087196,0.16585832881664445
PKO,RIORDAN CREEK,915-566500-58300-00000-0000-0000-000-000-000-000-000-000,6,PKO-13,1979,0,15.135,2.7170099424736818,600,6.396929655216146,4383.12795193806,1009.42216859454,7.305213253230099,1.9885882375527564,0.0349,0.0581,0.002,0.2202,0.079193,CWH,-1.19975713829789,0,FALSE,FALSE,-0.8565509506087196,0.16585832881664445
PKO,RIORDAN CREEK,915-566500-58300-00000-0000-0000-000-000-000-000-000-000,6,PKO-13,1981,0,15.135,2.7170099424736818,1500,7.313220387090301,1203.13924122082,4383.12795193806,0.8020928274805467,-0.22053093282534408,0.0349,0.0581,0.002,0.2202,0.079193,CWH,-0.22613906119882837,0,FALSE,FALSE,-0.8565509506087196,0.16585832881664445
PKO,RIORDAN CREEK,915-566500-58300-00000-0000-0000-000-000-000-000-000-000,6,PKO-13,1983,0,15.135,2.7170099424736818,700,6.551080335043404,8188.98813226727,1203.13924122082,11.698554474667528,2.459465284997167,0.0212,0.0353,0.002,0.2202,0.079193,CWH,0.10267616261581472,0,FALSE,FALSE,-0.8565509506087196,-0.13416874068245227
PKO,RIORDAN CREEK,915-566500-58300-00000-0000-0000-000-000-000-000-000-000,6,PKO-13,1985,0,15.135,2.7170099424736818,4500,8.411832675758411,2057.53052458154,8188.98813226727,0.4572290054625644,-0.7825709075546398,0.0212,0.0353,0.002,0.2202,0.079193,CWH,-0.9758993397997916,0,FALSE,FALSE,-0.8565509506087196,-0.13416874068245227