Species,River,WATERSHED_CDE,DFO,CU,BroodYear,hararea_m2_3005,area_km2,ln_area_km2,Spawners,logS,Recruits,Returns,recruitPerSpawner,ln_RS,ECA_age_proxy,ECA_age_proxy_forested_only,lake_cover_pct,var_eaubc_KFACTOR,var_eaubc_MELTONS_R,vri_bec_zone,npgo,portion_reporting_vri_cover1_missing,hatchery_enhancement,year_of_enhacement,ln_area_km2_std,ECA_age_proxy_forested_only_std
PKO,LIZARD CREEK,915-896000-80300-00000-0000-0000-000-000-000-000-000-000,3,PKO-17,2003,0,30.088,3.4041264211680353,4000,8.294049640102028,13369.9228154787,5576.17819093392,3.342480703869675,1.2067132570138497,0.0013,0.0016,0.019,0.01434,0.127007,CWH,0.41101277747559006,0,FALSE,FALSE,-0.3750164863792145,-0.5776298039333101
PKO,LIZARD CREEK,915-896000-80300-00000-0000-0000-000-000-000-000-000-000,3,PKO-17,2005,0,30.088,3.4041264211680353,9300,9.137769679141348,5627.68555667124,13369.9228154787,0.6051274792119613,-0.5023161337061537,0.0013,0.0016,0.019,0.01434,0.127007,CWH,-0.8145696192436794,0,FALSE,FALSE,-0.3750164863792145,-0.5776298039333101
PKO,LIZARD CREEK,915-896000-80300-00000-0000-0000-000-000-000-000-000-000,3,PKO-17,2007,0,30.088,3.4041264211680353,3500,8.160518247477505,5605.06525976845,5627.68555667124,1.6014472170767,0.47090773109539913,3e-4,3e-4,0.019,0.01434,0.127007,CWH,0.8768892458318005,0,FALSE,FALSE,-0.3750164863792145,-0.5947366105275568
PKO,LIZARD CREEK,915-896000-80300-00000-0000-0000-000-000-000-000-000-000,3,PKO-17,2009,0,30.088,3.4041264211680353,4400,8.389359819906353,708.52530319631,5605.06525976845,0.16102847799916137,-1.8261740476570787,3e-4,3e-4,0.019,0.01434,0.127007,CWH,1.604652193542091,0,FALSE,FALSE,-0.3750164863792145,-0.5947366105275568
PKO,MANZANITA COVE CREEK,915-876300-86000-00000-0000-0000-000-000-000-000-000-000,3,PKO-17,1983,0,10.613,2.3620796647796856,300,5.703782474656201,1025.74933004157,993.436138939713,3.4191644334718996,1.229396203525808,0,0,0.005,0.08017,0.100801,CWH,0.10267616261581472,0,FALSE,FALSE,-1.1052877607532967,-0.5986843351262291
PKO,MANZANITA COVE CREEK,915-876300-86000-00000-0000-0000-000-000-000-000-000-000,3,PKO-17,1985,0,10.613,2.3620796647796856,500,6.214608098422191,1457.98538652275,1025.74933004157,2.9159707730455002,1.0702027911351049,0,0,0.005,0.08017,0.100801,CWH,-0.9758993397997916,0,FALSE,FALSE,-1.1052877607532967,-0.5986843351262291
PKO,MANZANITA COVE CREEK,915-876300-86000-00000-0000-0000-000-000-000-000-000-000,3,PKO-17,1987,0,10.613,2.3620796647796856,650,6.476972362889683,598.275170768195,1457.98538652275,0.920423339643377,-0.0829215629901387,0,0,0.005,0.08017,0.100801,CWH,0.8862048812919091,0,FALSE,FALSE,-1.1052877607532967,-0.5986843351262291
PKO,MANZANITA COVE CREEK,915-876300-86000-00000-0000-0000-000-000-000-000-000-000,3,PKO-17,1989,0,10.613,2.3620796647796856,250,5.521460917862246,10383.3376130855,598.275170768195,41.533350452342,3.7264967298603264,0,0,0.005,0.08017,0.100801,CWH,0.15947767939610902,0,FALSE,FALSE,-1.1052877607532967,-0.5986843351262291
PKO,MANZANITA COVE CREEK,915-876300-86000-00000-0000-0000-000-000-000-000-000-000,3,PKO-17,1991,0,10.613,2.3620796647796856,2000,7.600902459542082,3232.80441991348,10383.3376130855,1.61640220995674,0.48020282143031656,0,0,0.005,0.08017,0.100801,CWH,-0.18487911555035336,0,FALSE,FALSE,-1.1052877607532967,-0.5986843351262291
PKO,MANZANITA COVE CREEK,915-876300-86000-00000-0000-0000-000-000-000-000-000-000,3,PKO-17,1993,0,10.613,2.3620796647796856,1000,6.907755278982137,751.066572740952,3232.80441991348,0.751066572740952,-0.28626098568612385,0,0,0.005,0.08017,0.100801,CWH,-1.7567819796155162,0,FALSE,FALSE,-1.1052877607532967,-0.5986843351262291
PKO,MANZANITA COVE CREEK,915-876300-86000-00000-0000-0000-000-000-000-000-000-000,3,PKO-17,1995,0,10.613,2.3620796647796856,300,5.703782474656201,86.439730460659,751.066572740952,0.28813243486886336,-1.2443350612470534,0,0,0.005,0.08017,0.100801,CWH,-0.5672147431639023,0,FALSE,FALSE,-1.1052877607532967,-0.5986843351262291
PKO,MANZANITA COVE CREEK,915-876300-86000-00000-0000-0000-000-000-000-000-000-000,3,PKO-17,1997,0,10.613,2.3620796647796856,50,3.912023005428146,1569.11512785987,86.439730460659,31.3823025571974,3.446244121196685,0,0,0.005,0.08017,0.100801,CWH,0.8907774948170872,0,FALSE,FALSE,-1.1052877607532967,-0.5986843351262291
PKO,MANZANITA COVE CREEK,915-876300-86000-00000-0000-0000-000-000-000-000-000-000,3,PKO-17,1999,0,10.613,2.3620796647796856,600,6.396929655216146,4251.91840428552,1569.11512785987,7.086530673809201,1.9581958941004902,0,0,0.005,0.08017,0.100801,CWH,1.6302835492491898,0,FALSE,FALSE,-1.1052877607532967,-0.5986843351262291
PKO,MANZANITA COVE CREEK,915-876300-86000-00000-0000-0000-000-000-000-000-000-000,3,PKO-17,2001,0,10.613,2.3620796647796856,3000,8.006367567650246,1752.31399650098,4251.91840428552,0.5841046655003267,-0.5376750904650739,0,0,0.005,0.08017,0.100801,CWH,1.9190067210816288,0,FALSE,FALSE,-1.1052877607532967,-0.5986843351262291
PKO,MANZANITA COVE CREEK,915-876300-86000-00000-0000-0000-000-000-000-000-000-000,3,PKO-17,2003,0,10.613,2.3620796647796856,1257,7.136483208590247,2875.25221838252,1752.31399650098,2.2873923773926172,0.8274124689263662,0,0,0.005,0.08017,0.100801,CWH,0.41101277747559006,0,FALSE,FALSE,-1.1052877607532967,-0.5986843351262291
PKO,MANZANITA COVE CREEK,915-876300-86000-00000-0000-0000-000-000-000-000-000-000,3,PKO-17,2005,0,10.613,2.3620796647796856,2000,7.600902459542082,1583.79150666319,2875.25221838252,0.791895753331595,-0.23332552041230603,0,0,0.005,0.08017,0.100801,CWH,-0.8145696192436794,0,FALSE,FALSE,-1.1052877607532967,-0.5986843351262291
PKO,MANZANITA COVE CREEK,915-876300-86000-00000-0000-0000-000-000-000-000-000-000,3,PKO-17,2007,0,10.613,2.3620796647796856,985,6.892641641172089,2547.75693625839,1583.79150666319,2.586555265236944,0.9503269770365464,0,0,0.005,0.08017,0.100801,CWH,0.8768892458318005,0,FALSE,FALSE,-1.1052877607532967,-0.5986843351262291
PKO,MANZANITA COVE CREEK,915-876300-86000-00000-0000-0000-000-000-000-000-000-000,3,PKO-17,2013,0,10.613,2.3620796647796856,3700,8.216088098632316,1951.99240215847,4656.85900443347,0.5275655140968838,-0.6394822240037026,0,0,0.005,0.08017,0.100801,CWH,-0.5528640906240193,0,FALSE,FALSE,-1.1052877607532967,-0.5986843351262291
PKO,TRACY BAY CREEK,915-876300-09400-00000-0000-0000-000-000-000-000-000-000,3,PKO-17,1983,0,8.3,2.1162555148025524,400,5.991464547107982,615.449598024942,1324.58151858628,1.538623995062355,0.4308885073080364,0,0,0.04,0.11941,0.085329,CWH,0.10267616261581472,0,FALSE,FALSE,-1.2775624827608991,-0.5986843351262291
PKO,TRACY BAY CREEK,915-876300-09400-00000-0000-0000-000-000-000-000-000-000,3,PKO-17,1985,0,8.3,2.1162555148025524,300,5.703782474656201,112.152722040211,615.449598024942,0.37384240680070335,-0.9839209425604462,0,0,0.04,0.11941,0.085329,CWH,-0.9758993397997916,0,FALSE,FALSE,-1.2775624827608991,-0.5986843351262291
PKO,TRACY BAY CREEK,915-876300-09400-00000-0000-0000-000-000-000-000-000-000,3,PKO-17,1987,0,8.3,2.1162555148025524,50,3.912023005428146,717.930204921834,112.152722040211,14.35860409843668,2.664349351265353,0,0,0.04,0.11941,0.085329,CWH,0.8862048812919091,0,FALSE,FALSE,-1.2775624827608991,-0.5986843351262291
PKO,TRACY BAY CREEK,915-876300-09400-00000-0000-0000-000-000-000-000-000-000,3,PKO-17,1989,0,8.3,2.1162555148025524,300,5.703782474656201,16094.1733002825,717.930204921834,53.647244334275,3.9824301039975256,0,0,0.04,0.11941,0.085329,CWH,0.15947767939610902,0,FALSE,FALSE,-1.2775624827608991,-0.5986843351262291
PKO,TRACY BAY CREEK,915-876300-09400-00000-0000-0000-000-000-000-000-000-000,3,PKO-17,1991,0,8.3,2.1162555148025524,3100,8.039157390473237,8082.0110497837,16094.1733002825,2.607100338639903,0.9582386223733163,0,0,0.04,0.11941,0.085329,CWH,-0.18487911555035336,0,FALSE,FALSE,-1.2775624827608991,-0.5986843351262291
PKO,TRACY BAY CREEK,915-876300-09400-00000-0000-0000-000-000-000-000-000-000,3,PKO-17,1993,0,8.3,2.1162555148025524,2500,7.824046010856292,1251.77762123492,8082.0110497837,0.500711048493968,-0.6917260937942883,0,0,0.04,0.11941,0.085329,CWH,-1.7567819796155162,0,FALSE,FALSE,-1.2775624827608991,-0.5986843351262291
PKO,TRACY BAY CREEK,915-876300-09400-00000-0000-0000-000-000-000-000-000-000,3,PKO-17,1995,0,8.3,2.1162555148025524,500,6.214608098422191,86.439730460659,1251.77762123492,0.172879460921318,-1.7551606850130441,0,0,0.04,0.11941,0.085329,CWH,-0.5672147431639023,0,FALSE,FALSE,-1.2775624827608991,-0.5986843351262291
PKO,TRACY BAY CREEK,915-876300-09400-00000-0000-0000-000-000-000-000-000-000,3,PKO-17,1997,0,8.3,2.1162555148025524,50,3.912023005428146,261.519187976645,86.439730460659,5.2303837595329,1.6544846519686303,0,0,0.04,0.11941,0.085329,CWH,0.8907774948170872,0,FALSE,FALSE,-1.2775624827608991,-0.5986843351262291
PKO,TRACY BAY CREEK,915-876300-09400-00000-0000-0000-000-000-000-000-000-000,3,PKO-17,1999,0,8.3,2.1162555148025524,100,4.605170185988092,1700.76736171421,261.519187976645,17.0076736171421,2.833664631454391,0,0,0.04,0.11941,0.085329,CWH,1.6302835492491898,0,FALSE,FALSE,-1.2775624827608991,-0.5986843351262291
PKO,TRACY BAY CREEK,915-876300-09400-00000-0000-0000-000-000-000-000-000-000,3,PKO-17,2001,0,8.3,2.1162555148025524,1200,7.090076835776092,1533.44900250683,1700.76736171421,1.2778741687556918,0.24519789160529948,0,0,0.04,0.11941,0.085329,CWH,1.9190067210816288,0,FALSE,FALSE,-1.2775624827608991,-0.5986843351262291
PKO,TRACY BAY CREEK,915-876300-09400-00000-0000-0000-000-000-000-000-000-000,3,PKO-17,2003,0,8.3,2.1162555148025524,1100,7.003065458786462,4312.87832757378,1533.44900250683,3.920798479612527,1.366295326838316,0,0,0.04,0.11941,0.085329,CWH,0.41101277747559006,0,FALSE,FALSE,-1.2775624827608991,-0.5986843351262291
PKO,TRACY BAY CREEK,915-876300-09400-00000-0000-0000-000-000-000-000-000-000,3,PKO-17,2013,0,8.3,2.1162555148025524,2800,7.937374696163295,481.491459199089,3524.10951686857,0.17196123542824607,-1.7604862029867139,0,0,0.04,0.11941,0.085329,CWH,-0.5528640906240193,0,FALSE,FALSE,-1.2775624827608991,-0.5986843351262291
PKO,DONAHUE CREEK,910-985000-00000-00000-0000-0000-000-000-000-000-000-000,3,PKO-17,1961,0,70.814,4.260056721264669,400,5.991464547107982,4502.36738078776,669.691667276212,11.2559184519694,2.4208940749359327,0.0013,0.0036,0,0.20471,0.199326,MH,0.00583928468743269,0,FALSE,FALSE,0.22482349891412454,-0.5513116399421613
PKO,DONAHUE CREEK,910-985000-00000-00000-0000-0000-000-000-000-000-000-000,3,PKO-17,1963,0,70.814,4.260056721264669,3500,8.160518247477505,6319.41922645094,4502.36738078776,1.8055483504145544,0.5908643408919335,0.0013,0.0036,0,0.20471,0.199326,MH,0.5797944041154652,0,FALSE,FALSE,0.22482349891412454,-0.5513116399421613
PKO,DONAHUE CREEK,910-985000-00000-00000-0000-0000-000-000-000-000-000-000,3,PKO-17,1965,0,70.814,4.260056721264669,3500,8.160518247477505,1600.60599857738,6319.41922645094,0.45731599959353714,-0.782380661846109,7e-4,0.0019,0,0.20471,0.199326,MH,-0.7093794641235007,0,FALSE,FALSE,0.22482349891412454,-0.5736820793346378
PKO,DONAHUE CREEK,910-985000-00000-00000-0000-0000-000-000-000-000-000-000,3,PKO-17,1967,0,70.814,4.260056721264669,700,6.551080335043404,1716.88257472282,1600.60599857738,2.4526893924611715,0.8971851337208686,7e-4,0.0019,0,0.20471,0.199326,MH,-0.48089809283299456,0,FALSE,FALSE,0.22482349891412454,-0.5736820793346378
PKO,DONAHUE CREEK,910-985000-00000-00000-0000-0000-000-000-000-000-000-000,3,PKO-17,1969,0,70.814,4.260056721264669,1000,6.907755278982137,231.15418748501,1716.88257472282,0.23115418748501,-1.4646703128348137,7e-4,0.0019,0,0.20471,0.199326,MH,0.09673401232408343,0,FALSE,FALSE,0.22482349891412454,-0.5736820793346378
PKO,DONAHUE CREEK,910-985000-00000-00000-0000-0000-000-000-000-000-000-000,3,PKO-17,1971,0,70.814,4.260056721264669,150,5.0106352940962555,432.898986780441,231.15418748501,2.88599324520294,1.0598691198094183,7e-4,0.0019,0,0.20471,0.199326,MH,-0.34080392906905344,0,FALSE,FALSE,0.22482349891412454,-0.5736820793346378
PKO,DONAHUE CREEK,910-985000-00000-00000-0000-0000-000-000-000-000-000-000,3,PKO-17,1985,0,70.814,4.260056721264669,1000,6.907755278982137,14579.8538652275,2051.49866008314,14.5798538652275,2.679640703569205,0.0113,0.0316,0,0.20471,0.199326,MH,-0.9758993397997916,0,FALSE,FALSE,0.22482349891412454,-0.18285734406607754
PKO,DONAHUE CREEK,910-985000-00000-00000-0000-0000-000-000-000-000-000-000,3,PKO-17,1987,0,70.814,4.260056721264669,6500,8.779557455883728,15555.1544399731,14579.8538652275,2.3931006830727846,0.8725898820372995,0.0113,0.0316,0,0.20471,0.199326,MH,0.8862048812919091,0,FALSE,FALSE,0.22482349891412454,-0.18285734406607754
PKO,DONAHUE CREEK,910-985000-00000-00000-0000-0000-000-000-000-000-000-000,3,PKO-17,1989,0,70.814,4.260056721264669,6500,8.779557455883728,25958.3440327138,15555.1544399731,3.993591389648277,1.3846909237130016,0.0113,0.0316,0,0.20471,0.199326,MH,0.15947767939610902,0,FALSE,FALSE,0.22482349891412454,-0.18285734406607754
PKO,DONAHUE CREEK,910-985000-00000-00000-0000-0000-000-000-000-000-000-000,3,PKO-17,1991,0,70.814,4.260056721264669,5000,8.517193191416238,8082.0110497837,25958.3440327138,1.61640220995674,0.48020282143031656,0.0096,0.0269,0,0.20471,0.199326,MH,-0.18487911555035336,0,FALSE,FALSE,0.22482349891412454,-0.24470502944527733
PKO,DONAHUE CREEK,910-985000-00000-00000-0000-0000-000-000-000-000-000-000,3,PKO-17,1997,0,70.814,4.260056721264669,500,6.214608098422191,6537.97969941612,864.39730460659,13.07595939883224,2.5707753838427845,0.0079,0.0222,0,0.20471,0.199326,MH,0.8907774948170872,0,FALSE,FALSE,0.22482349891412454,-0.3065527148244771
PKO,DONAHUE CREEK,910-985000-00000-00000-0000-0000-000-000-000-000-000-000,3,PKO-17,1999,0,70.814,4.260056721264669,2500,7.824046010856292,1417.30613476184,6537.97969941612,0.566922453904736,-0.5675327502077655,0.0079,0.0222,0,0.20471,0.199326,MH,1.6302835492491898,0,FALSE,FALSE,0.22482349891412454,-0.3065527148244771
PKO,DONAHUE CREEK,910-985000-00000-00000-0000-0000-000-000-000-000-000-000,3,PKO-17,2001,0,70.814,4.260056721264669,1000,6.907755278982137,4182.13364320044,1417.30613476184,4.18213364320044,1.4308215572630374,0.0046,0.0128,0,0.20471,0.199326,MH,1.9190067210816288,0,FALSE,FALSE,0.22482349891412454,-0.43024808558287664
PKO,GEORGIE RIVER,910-991800-00000-00000-0000-0000-000-000-000-000-000-000,3,PKO-17,1961,0,160.399,5.077664460999015,3500,8.160518247477505,964.793010168805,5859.80208866685,0.2756551457625157,-1.28860466638074,0.0029,0.0104,0.014,-0.01915,0.236666,MH,0.00583928468743269,0,FALSE,FALSE,0.7978068534262864,-0.4618298823722552
PKO,GEORGIE RIVER,910-991800-00000-00000-0000-0000-000-000-000-000-000-000,3,PKO-17,1963,0,160.399,5.077664460999015,750,6.620073206530356,5416.64505124366,964.793010168805,7.222193401658214,1.9771587020118235,0.0029,0.0104,0.014,-0.01915,0.236666,MH,0.5797944041154652,0,FALSE,FALSE,0.7978068534262864,-0.4618298823722552
PKO,GEORGIE RIVER,910-991800-00000-00000-0000-0000-000-000-000-000-000-000,3,PKO-17,1965,0,160.399,5.077664460999015,3000,8.006367567650246,7774.37199309014,5416.64505124366,2.5914573310300466,0.9522203935419985,0.0017,0.0061,0.014,-0.01915,0.236666,MH,-0.7093794641235007,0,FALSE,FALSE,0.7978068534262864,-0.5184139349532252
PKO,GEORGIE RIVER,910-991800-00000-00000-0000-0000-000-000-000-000-000-000,3,PKO-17,1967,0,160.399,5.077664460999015,3400,8.131530710604252,1716.88257472282,7774.37199309014,0.5049654631537706,-0.6832652418399796,0.0017,0.006,0.014,-0.01915,0.236666,MH,-0.48089809283299456,0,FALSE,FALSE,0.7978068534262864,-0.5197298431527827
PKO,GEORGIE RIVER,910-991800-00000-00000-0000-0000-000-000-000-000-000-000,3,PKO-17,1969,0,160.399,5.077664460999015,1000,6.907755278982137,308.205583313347,1716.88257472282,0.308205583313347,-1.1769882403830316,0.0017,0.006,0.014,-0.01915,0.236666,MH,0.09673401232408343,0,FALSE,FALSE,0.7978068534262864,-0.5197298431527827
PKO,GEORGIE RIVER,910-991800-00000-00000-0000-0000-000-000-000-000-000-000,3,PKO-17,1971,0,160.399,5.077664460999015,200,5.298317366548036,288.599324520294,308.205583313347,1.4429966226014699,0.36672193924947283,0.0017,0.006,0.014,-0.01915,0.236666,MH,-0.34080392906905344,0,FALSE,FALSE,0.7978068534262864,-0.5197298431527827
PKO,GEORGIE RIVER,910-991800-00000-00000-0000-0000-000-000-000-000-000-000,3,PKO-17,1985,0,160.399,5.077664460999015,5000,8.517193191416238,6729.16332241269,10257.4933004157,1.345832664482538,0.29701290290162263,1e-4,4e-4,0.014,-0.01915,0.236666,MH,-0.9758993397997916,0,FALSE,FALSE,0.7978068534262864,-0.5934207023279994
PKO,GEORGIE RIVER,910-991800-00000-00000-0000-0000-000-000-000-000-000-000,3,PKO-17,1987,0,160.399,5.077664460999015,3000,8.006367567650246,11965.5034153639,6729.16332241269,3.9885011384546334,1.3834155058032882,1e-4,4e-4,0.014,-0.01915,0.236666,MH,0.8862048812919091,0,FALSE,FALSE,0.7978068534262864,-0.5934207023279994
PKO,GEORGIE RIVER,910-991800-00000-00000-0000-0000-000-000-000-000-000-000,3,PKO-17,1989,0,160.399,5.077664460999015,5000,8.517193191416238,25958.3440327138,11965.5034153639,5.1916688065427605,1.6470551881804927,1e-4,4e-4,0.014,-0.01915,0.236666,MH,0.15947767939610902,0,FALSE,FALSE,0.7978068534262864,-0.5934207023279994
PKO,GEORGIE RIVER,910-991800-00000-00000-0000-0000-000-000-000-000-000-000,3,PKO-17,1991,0,160.399,5.077664460999015,5000,8.517193191416238,16164.0220995674,25958.3440327138,3.23280441991348,1.1733500019902618,1e-4,4e-4,0.014,-0.01915,0.236666,MH,-0.18487911555035336,0,FALSE,FALSE,0.7978068534262864,-0.5934207023279994
PKO,KISAMEET RIVER,915-226500-10000-00000-0000-0000-000-000-000-000-000-000,8,PKO-12,1955,0,37.042,3.61205240400061,200,5.298317366548036,398.590426410404,408.252730142673,1.99295213205202,0.6896170229051001,0.0043,0.0053,0.143,0.22067,0.140372,CWH,-0.07106879047729574,0,FALSE,FALSE,-0.22930097838713415,-0.5289412005496847
PKO,KISAMEET RIVER,915-226500-10000-00000-0000-0000-000-000-000-000-000-000,8,PKO-12,1957,0,37.042,3.61205240400061,200,5.298317366548036,595.80250107523,398.590426410404,2.97901250537615,1.0915918715659563,0.0056,0.007,0.143,0.22067,0.140372,CWH,-0.3276691034772351,0,FALSE,FALSE,-0.22930097838713415,-0.5065707611572082
PKO,KISAMEET RIVER,915-226500-10000-00000-0000-0000-000-000-000-000-000-000,8,PKO-12,1959,0,37.042,3.61205240400061,400,5.991464547107982,3441.00487637877,595.80250107523,8.602512190946925,2.152054275828503,0.0056,0.007,0.143,0.22067,0.140372,CWH,0.7824977620566573,0,FALSE,FALSE,-0.22930097838713415,-0.5065707611572082
PKO,KISAMEET RIVER,915-226500-10000-00000-0000-0000-000-000-000-000-000-000,8,PKO-12,1961,0,37.042,3.61205240400061,1500,7.313220387090301,360.921503555745,3441.00487637877,0.24061433570383,-1.4245598940751254,0.0056,0.007,0.143,0.22067,0.140372,CWH,0.00583928468743269,0,FALSE,FALSE,-0.22930097838713415,-0.5065707611572082
PKO,KISAMEET RIVER,915-226500-10000-00000-0000-0000-000-000-000-000-000-000,8,PKO-12,1971,0,37.042,3.61205240400061,800,6.684611727667927,758.896206792204,1115.08384976851,0.948620258490255,-0.052746709567818795,0.0138,0.0171,0.143,0.22067,0.140372,CWH,-0.34080392906905344,0,FALSE,FALSE,-0.22930097838713415,-0.3736640330019066
PKO,KISAMEET RIVER,915-226500-10000-00000-0000-0000-000-000-000-000-000-000,8,PKO-12,1973,0,37.042,3.61205240400061,400,5.991464547107982,2300.45238058665,758.896206792204,5.751130951466625,1.7493965226804524,0.0138,0.0171,0.143,0.22067,0.140372,CWH,-0.20355231452664888,0,FALSE,FALSE,-0.22930097838713415,-0.3736640330019066
PKO,KISAMEET RIVER,915-226500-10000-00000-0000-0000-000-000-000-000-000-000,8,PKO-12,1975,0,37.042,3.61205240400061,1500,7.313220387090301,13705.0142866649,2300.45238058665,9.136676191109933,2.2122966640878436,0.0138,0.0171,0.143,0.22067,0.140372,CWH,1.2286162579398736,0,FALSE,FALSE,-0.22930097838713415,-0.3736640330019066
PKO,KISAMEET RIVER,915-226500-10000-00000-0000-0000-000-000-000-000-000-000,8,PKO-12,1977,0,37.042,3.61205240400061,7000,8.85366542803745,9082.09546768773,13705.0142866649,1.2974422096696756,0.2603947953123605,0.0151,0.0188,0.143,0.22067,0.140372,CWH,0.9724829797884954,0,FALSE,FALSE,-0.22930097838713415,-0.3512935936094301