Species,River,WATERSHED_CDE,DFO,CU,BroodYear,hararea_m2_3005,area_km2,ln_area_km2,Spawners,logS,Recruits,Returns,recruitPerSpawner,ln_RS,ECA_age_proxy,ECA_age_proxy_forested_only,lake_cover_pct,var_eaubc_KFACTOR,var_eaubc_MELTONS_R,vri_bec_zone,npgo,portion_reporting_vri_cover1_missing,hatchery_enhancement,year_of_enhacement,ln_area_km2_std,ECA_age_proxy_forested_only_std
PKO,POISON COVE CREEK,910-513400-00000-00000-0000-0000-000-000-000-000-000-000,7,PKO-13,1961,0,99.169,4.596825465452527,200,5.298317366548036,392.455258790678,393.866089432806,1.96227629395339,0.6741051738348119,0.0273,0.0517,0.034,0.22222,0.162834,CWH,0.00583928468743269,0.00126798437813204,FALSE,FALSE,0.46083262084624294,0.08164020404496823
PKO,POISON COVE CREEK,910-513400-00000-00000-0000-0000-000-000-000-000-000-000,7,PKO-13,1963,0,99.169,4.596825465452527,200,5.298317366548036,1216.02380838422,392.455258790678,6.0801190419211,1.8050242750497432,0.0272,0.0516,0.034,0.22222,0.162834,CWH,0.5797944041154652,0.00126798437813204,FALSE,FALSE,0.46083262084624294,0.08032429584541076
PKO,POISON COVE CREEK,910-513400-00000-00000-0000-0000-000-000-000-000-000-000,7,PKO-13,1965,0,99.169,4.596825465452527,400,5.991464547107982,1091.21709983172,1216.02380838422,2.7280427495793,1.0035844105253309,0.0272,0.0516,0.034,0.22222,0.162834,CWH,-0.7093794641235007,0.00126798437813204,FALSE,FALSE,0.46083262084624294,0.08032429584541076
PKO,POISON COVE CREEK,910-513400-00000-00000-0000-0000-000-000-000-000-000-000,7,PKO-13,1967,0,99.169,4.596825465452527,750,6.620073206530356,935.188496055532,1091.21709983172,1.2469179947407094,0.22067490249916225,0.0251,0.0477,0.034,0.22222,0.162834,CWH,-0.48089809283299456,0.00126798437813204,FALSE,FALSE,0.46083262084624294,0.029003876062670523
PKO,POISON COVE CREEK,910-513400-00000-00000-0000-0000-000-000-000-000-000-000,7,PKO-13,1969,0,99.169,4.596825465452527,800,6.684611727667927,1034.76690561297,935.188496055532,1.2934586320162125,0.25731974069937363,0.0251,0.0477,0.034,0.22222,0.162834,CWH,0.09673401232408343,0.00126798437813204,FALSE,FALSE,0.46083262084624294,0.029003876062670523
PKO,POISON COVE CREEK,910-513400-00000-00000-0000-0000-000-000-000-000-000-000,7,PKO-13,1971,275598.357621488,99.169,4.596825465452527,800,6.684611727667927,863.800396818846,1034.76690561297,1.0797504960235575,0.07672999224597941,0.0279,0.0529,0.034,0.22222,0.162834,CWH,-0.34080392906905344,0.00126798437813204,FALSE,FALSE,0.46083262084624294,0.09743110243965754
PKO,POISON COVE CREEK,910-513400-00000-00000-0000-0000-000-000-000-000-000-000,7,PKO-13,1973,0,99.169,4.596825465452527,500,6.214608098422191,430.629596891998,863.800396818846,0.861259193783996,-0.149359781780626,0.0279,0.0529,0.034,0.22222,0.162834,CWH,-0.20355231452664888,0.00126798437813204,FALSE,FALSE,0.46083262084624294,0.09743110243965754
PKO,POISON COVE CREEK,910-513400-00000-00000-0000-0000-000-000-000-000-000-000,7,PKO-13,1975,0,99.169,4.596825465452527,300,5.703782474656201,172.159773731924,430.629596891998,0.5738659124397466,-0.5553595119731202,0.0279,0.0529,0.034,0.22222,0.162834,CWH,1.2286162579398736,0.00126798437813204,FALSE,FALSE,0.46083262084624294,0.09743110243965754
PKO,POISON COVE CREEK,910-513400-00000-00000-0000-0000-000-000-000-000-000-000,7,PKO-13,1977,0,99.169,4.596825465452527,100,4.605170185988092,588.829598346814,172.159773731924,5.88829598346814,1.7729666490945444,0.0154,0.0291,0.034,0.22222,0.162834,CWH,0.9724829797884954,0.00126798437813204,FALSE,FALSE,0.46083262084624294,-0.2157550490550136
PKO,POISON COVE CREEK,910-513400-00000-00000-0000-0000-000-000-000-000-000-000,7,PKO-13,1979,0,99.169,4.596825465452527,350,5.857933154483459,876.625590387611,588.829598346814,2.504644543964603,0.918146825851342,0.0154,0.0291,0.034,0.22222,0.162834,CWH,-1.19975713829789,0.00126798437813204,FALSE,FALSE,0.46083262084624294,-0.2157550490550136
PKO,POISON COVE CREEK,910-513400-00000-00000-0000-0000-000-000-000-000-000-000,7,PKO-13,1981,0,99.169,4.596825465452527,300,5.703782474656201,532.818806826361,876.625590387611,1.7760626894212033,0.5743989420445395,0.0154,0.0291,0.034,0.22222,0.162834,CWH,-0.22613906119882837,0.00126798437813204,FALSE,FALSE,0.46083262084624294,-0.2157550490550136
PKO,POISON COVE CREEK,910-513400-00000-00000-0000-0000-000-000-000-000-000-000,7,PKO-13,1983,0,99.169,4.596825465452527,310,5.736572297479192,9826.78575872072,532.818806826361,31.699308899099098,3.456294879355334,0.0147,0.0278,0.034,0.22222,0.162834,CWH,0.10267616261581472,0.00126798437813204,FALSE,FALSE,0.46083262084624294,-0.23286185564926037
PKO,POISON COVE CREEK,910-513400-00000-00000-0000-0000-000-000-000-000-000-000,7,PKO-13,1985,0,99.169,4.596825465452527,5400,8.594154232552366,3292.04883933047,9826.78575872072,0.609638673950087,-0.4948888351028571,0.0147,0.0278,0.034,0.22222,0.162834,CWH,-0.9758993397997916,0.00126798437813204,FALSE,FALSE,0.46083262084624294,-0.23286185564926037
PKO,POISON COVE CREEK,910-513400-00000-00000-0000-0000-000-000-000-000-000-000,7,PKO-13,1987,0,99.169,4.596825465452527,1600,7.3777589082278725,3892.01655663843,3292.04883933047,2.4325103478990187,0.8889237890870708,0.0084,0.0158,0.034,0.22222,0.162834,CWH,0.8862048812919091,0.00126798437813204,FALSE,FALSE,0.46083262084624294,-0.39077083959615333
PKO,POISON COVE CREEK,910-513400-00000-00000-0000-0000-000-000-000-000-000-000,7,PKO-13,1989,0,99.169,4.596825465452527,3500,8.160518247477505,5501.37826062506,3892.01655663843,1.5718223601785886,0.45223568519083573,0.0084,0.0158,0.034,0.22222,0.162834,CWH,0.15947767939610902,0.00126798437813204,FALSE,FALSE,0.46083262084624294,-0.39077083959615333
PKO,POISON COVE CREEK,910-513400-00000-00000-0000-0000-000-000-000-000-000-000,7,PKO-13,1991,10244.0136233624,99.169,4.596825465452527,4175,8.336869637284956,3210.19462620311,5501.37826062506,0.768908892503739,-0.26278279178297004,0.0085,0.016,0.034,0.22222,0.162834,CWH,-0.18487911555035336,0.00126798437813204,FALSE,FALSE,0.46083262084624294,-0.38813902319703847
PKO,POISON COVE CREEK,910-513400-00000-00000-0000-0000-000-000-000-000-000-000,7,PKO-13,2005,0,99.169,4.596825465452527,2200,7.696212639346407,2614.94973813202,3282.7871112066,1.1886135173327363,0.172787516368288,0.0037,0.007,0.034,0.22222,0.162834,CWH,-0.8145696192436794,0.00126798437813204,FALSE,FALSE,0.46083262084624294,-0.5065707611572082
PKO,POISON COVE CREEK,910-513400-00000-00000-0000-0000-000-000-000-000-000-000,7,PKO-13,2011,0,99.169,4.596825465452527,1200,7.090076835776092,2615.41409834419,1424.90357748736,2.179511748620158,0.7791008831934392,0.0014,0.0026,0.034,0.22222,0.162834,CWH,0.7408851700104637,0.00126798437813204,FALSE,FALSE,0.46083262084624294,-0.5644707219377357
PKO,MUSSEL RIVER,910-514200-00000-00000-0000-0000-000-000-000-000-000-000,7,PKO-13,1955,0,167.937,5.123588909073176,3500,8.160518247477505,62013.729527877,6697.41298435454,17.718208436536287,2.8745928360326367,0.0297,0.0755,0.04,0.22683,0.219975,CWH,-0.07106879047729574,0.00111493443525319,FALSE,FALSE,0.8299909229168734,0.3948263555396393
PKO,MUSSEL RIVER,910-514200-00000-00000-0000-0000-000-000-000-000-000-000,7,PKO-13,1957,0,167.937,5.123588909073176,35000,10.46310334047155,20629.6976451825,62013.729527877,0.5894199327195,-0.5286163905881819,0.0309,0.0784,0.04,0.22683,0.219975,CWH,-0.3276691034772351,0.00111493443525319,FALSE,FALSE,0.8299909229168734,0.4329876933268051
PKO,MUSSEL RIVER,910-514200-00000-00000-0000-0000-000-000-000-000-000-000,7,PKO-13,1959,0,167.937,5.123588909073176,15000,9.615805480084347,147699.783537302,20629.6976451825,9.846652235820132,2.28713152287753,0.0309,0.0784,0.04,0.22683,0.219975,CWH,0.7824977620566573,0.00111493443525319,FALSE,FALSE,0.8299909229168734,0.4329876933268051
PKO,MUSSEL RIVER,910-514200-00000-00000-0000-0000-000-000-000-000-000-000,7,PKO-13,1961,70130.8343438884,167.937,5.123588909073176,75000,11.225243392518447,14717.0722046504,147699.783537302,0.19622762939533867,-1.6284799191592354,0.0313,0.0794,0.04,0.22683,0.219975,CWH,0.00583928468743269,0.00111493443525319,FALSE,FALSE,0.8299909229168734,0.4461467753223795
PKO,MUSSEL RIVER,910-514200-00000-00000-0000-0000-000-000-000-000-000-000,7,PKO-13,1963,0,167.937,5.123588909073176,7500,8.922658299524402,106402.083233619,14717.0722046504,14.1869444311492,2.6523221354369446,0.031,0.0788,0.04,0.22683,0.219975,CWH,0.5797944041154652,0.00111493443525319,FALSE,FALSE,0.8299909229168734,0.4382513261250348
PKO,MUSSEL RIVER,910-514200-00000-00000-0000-0000-000-000-000-000-000-000,7,PKO-13,1965,0,167.937,5.123588909073176,35000,10.46310334047155,21824.3419966344,106402.083233619,0.6235526284752686,-0.47232210928424684,0.031,0.0788,0.04,0.22683,0.219975,CWH,-0.7093794641235007,0.00111493443525319,FALSE,FALSE,0.8299909229168734,0.4382513261250348
PKO,MUSSEL RIVER,910-514200-00000-00000-0000-0000-000-000-000-000-000-000,7,PKO-13,1967,0,167.937,5.123588909073176,15000,9.615805480084347,87673.9215052061,21824.3419966344,5.844928100347073,1.765574293795691,0.0262,0.0665,0.04,0.22683,0.219975,CWH,-0.48089809283299456,0.00111493443525319,FALSE,FALSE,0.8299909229168734,0.2763946175794696
PKO,MUSSEL RIVER,910-514200-00000-00000-0000-0000-000-000-000-000-000-000,7,PKO-13,1969,0,167.937,5.123588909073176,75000,11.225243392518447,90542.104241135,87673.9215052061,1.2072280565484668,0.18832686921242367,0.0262,0.0665,0.04,0.22683,0.219975,CWH,0.09673401232408343,0.00111493443525319,FALSE,FALSE,0.8299909229168734,0.2763946175794696
PKO,MUSSEL RIVER,910-514200-00000-00000-0000-0000-000-000-000-000-000-000,7,PKO-13,1971,534061.039127097,167.937,5.123588909073176,70000,11.156250521031495,103656.047618261,90542.104241135,1.4808006802608715,0.3925829416644517,0.0294,0.0745,0.04,0.22683,0.219975,CWH,-0.34080392906905344,0.00111493443525319,FALSE,FALSE,0.8299909229168734,0.3816672735440649
PKO,MUSSEL RIVER,910-514200-00000-00000-0000-0000-000-000-000-000-000-000,7,PKO-13,1973,0,167.937,5.123588909073176,60000,11.002099841204238,21531.4798445999,103656.047618261,0.35885799740999835,-1.0248285191345259,0.0293,0.0743,0.04,0.22683,0.219975,CWH,-0.20355231452664888,0.00111493443525319,FALSE,FALSE,0.8299909229168734,0.37903545714495007
PKO,MUSSEL RIVER,910-514200-00000-00000-0000-0000-000-000-000-000-000-000,7,PKO-13,1975,0,167.937,5.123588909073176,15000,9.615805480084347,29267.1615344271,21531.4798445999,1.9511441022951401,0.6684159196489964,0.0293,0.0743,0.04,0.22683,0.219975,CWH,1.2286162579398736,0.00111493443525319,FALSE,FALSE,0.8299909229168734,0.37903545714495007
PKO,MUSSEL RIVER,910-514200-00000-00000-0000-0000-000-000-000-000-000-000,7,PKO-13,1977,0,167.937,5.123588909073176,17000,9.740968623038354,168237.02809909,29267.1615344271,9.896295770534707,2.2921605225310535,0.0134,0.034,0.04,0.22683,0.219975,CWH,0.9724829797884954,0.00111493443525319,FALSE,FALSE,0.8299909229168734,-0.15127554727669895
PKO,MUSSEL RIVER,910-514200-00000-00000-0000-0000-000-000-000-000-000-000,7,PKO-13,1979,0,167.937,5.123588909073176,100000,11.512925464970229,146104.265064602,168237.02809909,1.46104265064602,0.37915032511865593,0.0134,0.034,0.04,0.22683,0.219975,CWH,-1.19975713829789,0.00111493443525319,FALSE,FALSE,0.8299909229168734,-0.15127554727669895
PKO,MUSSEL RIVER,910-514200-00000-00000-0000-0000-000-000-000-000-000-000,7,PKO-13,1981,0,167.937,5.123588909073176,50000,10.819778284410283,24062.7848244163,146104.265064602,0.481255696488326,-0.7313565565913389,0.0134,0.034,0.04,0.22683,0.219975,CWH,-0.22613906119882837,0.00111493443525319,FALSE,FALSE,0.8299909229168734,-0.15127554727669895
PKO,MUSSEL RIVER,910-514200-00000-00000-0000-0000-000-000-000-000-000-000,7,PKO-13,1983,0,167.937,5.123588909073176,14000,9.546812608597396,87349.2067441842,24062.7848244163,6.239229053156014,1.8308566255747927,0.0123,0.0312,0.04,0.22683,0.219975,CWH,0.10267616261581472,0.00111493443525319,FALSE,FALSE,0.8299909229168734,-0.18812097686430737
PKO,MUSSEL RIVER,910-514200-00000-00000-0000-0000-000-000-000-000-000-000,7,PKO-13,1985,0,167.937,5.123588909073176,48000,10.778956289890028,25060.7217894032,87349.2067441842,0.5220983706125667,-0.6498992594045038,0.0123,0.0312,0.04,0.22683,0.219975,CWH,-0.9758993397997916,0.00111493443525319,FALSE,FALSE,0.8299909229168734,-0.18812097686430737
PKO,MUSSEL RIVER,910-514200-00000-00000-0000-0000-000-000-000-000-000-000,7,PKO-13,1987,0,167.937,5.123588909073176,12180,9.407550541263888,38920.1655663843,25060.7217894032,3.195415892149778,1.161717249045101,0.0094,0.0239,0.04,0.22683,0.219975,CWH,0.8862048812919091,0.00111493443525319,FALSE,FALSE,0.8299909229168734,-0.2841822754320006
PKO,MUSSEL RIVER,910-514200-00000-00000-0000-0000-000-000-000-000-000-000,7,PKO-13,1989,0,167.937,5.123588909073176,35000,10.46310334047155,71353.2054641549,38920.1655663843,2.038663013261569,0.71229420734097,0.0094,0.0239,0.04,0.22683,0.219975,CWH,0.15947767939610902,0.00111493443525319,FALSE,FALSE,0.8299909229168734,-0.2841822754320006
PKO,MUSSEL RIVER,910-514200-00000-00000-0000-0000-000-000-000-000-000-000,7,PKO-13,1991,10880.0778085418,167.937,5.123588909073176,54150,10.899513252429136,48152.9193930466,71353.2054641549,0.8892505889759298,-0.11737620582494189,0.0095,0.0241,0.04,0.22683,0.219975,CWH,-0.18487911555035336,0.00111493443525319,FALSE,FALSE,0.8299909229168734,-0.2815504590328857
PKO,MUSSEL RIVER,910-514200-00000-00000-0000-0000-000-000-000-000-000-000,7,PKO-13,1993,0,167.937,5.123588909073176,45000,10.714417768752456,43201.6282884699,48152.9193930466,0.9600361841882201,-0.04078430336784625,0.0079,0.02,0.04,0.22683,0.219975,CWH,-1.7567819796155162,0.00111493443525319,FALSE,FALSE,0.8299909229168734,-0.3355026952147408
PKO,MUSSEL RIVER,910-514200-00000-00000-0000-0000-000-000-000-000-000-000,7,PKO-13,1995,0,167.937,5.123588909073176,38000,10.545341438708522,29440.1149131059,43201.6282884699,0.7747398661343657,-0.2552279625748941,0.0079,0.02,0.04,0.22683,0.219975,CWH,-0.5672147431639023,0.00111493443525319,FALSE,FALSE,0.8299909229168734,-0.3355026952147408
PKO,MUSSEL RIVER,910-514200-00000-00000-0000-0000-000-000-000-000-000-000,7,PKO-13,1997,0,167.937,5.123588909073176,25000,10.126631103850338,36082.6668593233,29440.1149131059,1.443306674372932,0.36693678276434505,0.0029,0.0073,0.04,0.22683,0.219975,CWH,0.8907774948170872,0.00111493443525319,FALSE,FALSE,0.8299909229168734,-0.5026230365585359
PKO,MUSSEL RIVER,910-514200-00000-00000-0000-0000-000-000-000-000-000-000,7,PKO-13,1999,0,167.937,5.123588909073176,33000,10.404262840448617,124187.942719013,36082.6668593233,3.7632709914852422,1.3252885237633116,0.0029,0.0073,0.04,0.22683,0.219975,CWH,1.6302835492491898,0.00111493443525319,FALSE,FALSE,0.8299909229168734,-0.5026230365585359
PKO,MUSSEL RIVER,910-514200-00000-00000-0000-0000-000-000-000-000-000-000,7,PKO-13,2001,0,167.937,5.123588909073176,91000,11.418614785498987,147547.354556199,124187.942719013,1.6213995006175712,0.48328966557683195,0.0029,0.0073,0.04,0.22683,0.219975,CWH,1.9190067210816288,0.00111493443525319,FALSE,FALSE,0.8299909229168734,-0.5026230365585359
PKO,MUSSEL RIVER,910-514200-00000-00000-0000-0000-000-000-000-000-000-000,7,PKO-13,2003,0,167.937,5.123588909073176,100000,11.512925464970229,104452.317174755,147547.354556199,1.0445231717475498,0.04356048630412095,0.0028,0.0071,0.04,0.22683,0.219975,CWH,0.41101277747559006,0.00111493443525319,FALSE,FALSE,0.8299909229168734,-0.5052548529576507
PKO,MUSSEL RIVER,910-514200-00000-00000-0000-0000-000-000-000-000-000-000,7,PKO-13,2005,0,167.937,5.123588909073176,70000,11.156250521031495,72222.4213388844,104452.317174755,1.031748876269777,0.03125530050024168,0.0028,0.0071,0.04,0.22683,0.219975,CWH,-0.8145696192436794,0.00111493443525319,FALSE,FALSE,0.8299909229168734,-0.5052548529576507
PKO,MUSSEL RIVER,910-514200-00000-00000-0000-0000-000-000-000-000-000-000,7,PKO-13,2007,0,167.937,5.123588909073176,58000,10.968198289528557,128989.230253183,72222.4213388844,2.2239522457445347,0.7992859039206345,0.0013,0.0032,0.04,0.22683,0.219975,CWH,0.8768892458318005,0.00111493443525319,FALSE,FALSE,0.8299909229168734,-0.556575272740391
PKO,MUSSEL RIVER,910-514200-00000-00000-0000-0000-000-000-000-000-000-000,7,PKO-13,2009,0,167.937,5.123588909073176,100000,11.512925464970229,71245.1788743682,128989.230253183,0.712451788743682,-0.3390430340498536,0.0013,0.0032,0.04,0.22683,0.219975,CWH,1.604652193542091,0.00111493443525319,FALSE,FALSE,0.8299909229168734,-0.556575272740391
PKO,MUSSEL RIVER,910-514200-00000-00000-0000-0000-000-000-000-000-000-000,7,PKO-13,2011,0,167.937,5.123588909073176,60000,11.002099841204238,150386.310654791,71245.1788743682,2.5064385109131835,0.9188628255685986,0.0013,0.0032,0.04,0.22683,0.219975,CWH,0.7408851700104637,0.00111493443525319,FALSE,FALSE,0.8299909229168734,-0.556575272740391
PKO,MUSSEL RIVER,910-514200-00000-00000-0000-0000-000-000-000-000-000-000,7,PKO-13,2013,0,167.937,5.123588909073176,115000,11.652687407345388,24663.5687430611,150386.310654791,0.21446581515705304,-1.5396049232119855,6e-4,0.0015,0.04,0.22683,0.219975,CWH,-0.5528640906240193,0.00111493443525319,FALSE,FALSE,0.8299909229168734,-0.5789457121328675
PKO,BOLIN BAY CREEK,910-519700-00000-00000-0000-0000-000-000-000-000-000-000,7,PKO-13,1955,0,17.627,2.869431817437816,1500,7.313220387090301,1328.86563274022,2870.31985043766,0.8859104218268133,-0.12113943752135542,0.004,0.0052,0.002,0.2565,0.15287,CWH,-0.07106879047729574,0,FALSE,FALSE,-0.7497329828062625,-0.5302571087492421
PKO,BOLIN BAY CREEK,910-519700-00000-00000-0000-0000-000-000-000-000-000-000,7,PKO-13,1957,0,17.627,2.869431817437816,750,6.620073206530356,103.148488225912,1328.86563274022,0.13753131763454934,-1.9839036231950287,0.0028,0.0036,0.002,0.2565,0.15287,CWH,-0.3276691034772351,0,FALSE,FALSE,-0.7497329828062625,-0.5513116399421613
PKO,BOLIN BAY CREEK,910-519700-00000-00000-0000-0000-000-000-000-000-000-000,7,PKO-13,1959,0,17.627,2.869431817437816,75,4.31748811353631,6892.6565650741,103.148488225912,91.90208753432134,4.520723744384625,0.0028,0.0036,0.002,0.2565,0.15287,CWH,0.7824977620566573,0,FALSE,FALSE,-0.7497329828062625,-0.5513116399421613
PKO,BOLIN BAY CREEK,910-519700-00000-00000-0000-0000-000-000-000-000-000-000,7,PKO-13,1961,0,17.627,2.869431817437816,3500,8.160518247477505,2943.41444093009,6892.6565650741,0.8409755545514543,-0.1731926865523899,0.0028,0.0036,0.002,0.2565,0.15287,CWH,0.00583928468743269,0,FALSE,FALSE,-0.7497329828062625,-0.5513116399421613
PKO,BOLIN BAY CREEK,910-519700-00000-00000-0000-0000-000-000-000-000-000-000,7,PKO-13,1963,0,17.627,2.869431817437816,1500,7.313220387090301,608.011904192111,2943.41444093009,0.40534126946140736,-0.9030259260524651,0.0028,0.0036,0.002,0.2565,0.15287,CWH,0.5797944041154652,0,FALSE,FALSE,-0.7497329828062625,-0.5513116399421613
PKO,BOLIN BAY CREEK,910-519700-00000-00000-0000-0000-000-000-000-000-000-000,7,PKO-13,1965,0,17.627,2.869431817437816,200,5.298317366548036,290.991226621792,608.011904192111,1.45495613310896,0.3749757511029567,0.0028,0.0036,0.002,0.2565,0.15287,CWH,-0.7093794641235007,0,FALSE,FALSE,-0.7497329828062625,-0.5513116399421613
PKO,BOLIN BAY CREEK,910-519700-00000-00000-0000-0000-000-000-000-000-000-000,7,PKO-13,1967,0,17.627,2.869431817437816,200,5.298317366548036,467.594248027766,290.991226621792,2.33797124013883,0.8492835619215364,0.0015,0.0019,0.002,0.2565,0.15287,CWH,-0.48089809283299456,0,FALSE,FALSE,-0.7497329828062625,-0.5736820793346378
PKO,BOLIN BAY CREEK,910-519700-00000-00000-0000-0000-000-000-000-000-000-000,7,PKO-13,1969,0,17.627,2.869431817437816,400,5.991464547107982,2586.91726403243,467.594248027766,6.467293160081075,1.866757653133476,0.0015,0.0019,0.002,0.2565,0.15287,CWH,0.09673401232408343,0,FALSE,FALSE,-0.7497329828062625,-0.5736820793346378
PKO,BOLIN BAY CREEK,910-519700-00000-00000-0000-0000-000-000-000-000-000-000,7,PKO-13,1971,0,17.627,2.869431817437816,2000,7.600902459542082,1209.32055554638,2586.91726403243,0.6046602777731901,-0.5030885030069663,0.0015,0.0019,0.002,0.2565,0.15287,CWH,-0.34080392906905344,0,FALSE,FALSE,-0.7497329828062625,-0.5736820793346378