Species,River,WATERSHED_CDE,DFO,CU,BroodYear,hararea_m2_3005,area_km2,ln_area_km2,Spawners,logS,Recruits,Returns,recruitPerSpawner,ln_RS,ECA_age_proxy,ECA_age_proxy_forested_only,lake_cover_pct,var_eaubc_KFACTOR,var_eaubc_MELTONS_R,vri_bec_zone,npgo,portion_reporting_vri_cover1_missing,hatchery_enhancement,year_of_enhacement,ln_area_km2_std,ECA_age_proxy_forested_only_std
PKO,HUGH CREEK,910-650400-00000-00000-0000-0000-000-000-000-000-000-000,6,PKO-13,1977,90703.2020150901,53.254,3.975072919139258,150,5.0106352940962555,5047.11084297269,258.239660597887,33.64740561981793,3.515935954153167,0.0311,0.0373,0.001,0.22417,0.213666,CWH,0.9724829797884954,0,FALSE,FALSE,0.025105508259456892,-0.10785057669130341
PKO,HUGH CREEK,910-650400-00000-00000-0000-0000-000-000-000-000-000-000,6,PKO-13,1979,0,53.254,3.975072919139258,3000,8.006367567650246,20454.5971090443,5047.11084297269,6.8181990363481,1.919595366065806,0.0179,0.0215,0.001,0.22417,0.213666,CWH,-1.19975713829789,0,FALSE,FALSE,0.025105508259456892,-0.3157640722213792
PKO,HUGH CREEK,910-650400-00000-00000-0000-0000-000-000-000-000-000-000,6,PKO-13,1981,0,53.254,3.975072919139258,7000,8.85366542803745,11172.0072399076,20454.5971090443,1.5960010342725142,0.46750114706782947,0.0179,0.0215,0.001,0.22417,0.213666,CWH,-0.22613906119882837,0,FALSE,FALSE,0.025105508259456892,-0.3157640722213792
PKO,HUGH CREEK,910-650400-00000-00000-0000-0000-000-000-000-000-000-000,6,PKO-13,1983,0,53.254,3.975072919139258,6500,8.779557455883728,7279.10056201535,11172.0072399076,1.1198616249254385,0.1132051285004597,0.0177,0.0212,0.001,0.22417,0.213666,CWH,0.10267616261581472,0,FALSE,FALSE,0.025105508259456892,-0.3197117968200515
PKO,HUGH CREEK,910-650400-00000-00000-0000-0000-000-000-000-000-000-000,6,PKO-13,1985,0,53.254,3.975072919139258,4000,8.294049640102028,6172.59157374463,7279.10056201535,1.5431478934361575,0.4338244167698551,0.0177,0.0212,0.001,0.22417,0.213666,CWH,-0.9758993397997916,0,FALSE,FALSE,0.025105508259456892,-0.3197117968200515
PKO,HUGH CREEK,910-650400-00000-00000-0000-0000-000-000-000-000-000-000,6,PKO-13,1987,0,53.254,3.975072919139258,3000,8.006367567650246,5560.02365234062,6172.59157374463,1.8533412174468733,0.6169900736034302,0.0176,0.0211,0.001,0.22417,0.213666,CWH,0.8862048812919091,0,FALSE,FALSE,0.025105508259456892,-0.3210277050196089
PKO,HUGH CREEK,910-650400-00000-00000-0000-0000-000-000-000-000-000-000,6,PKO-13,1989,0,53.254,3.975072919139258,5000,8.517193191416238,5534.3206454192205,5560.02365234062,1.1068641290838441,0.10153090823860696,0.01,0.012,0.001,0.22417,0.213666,CWH,0.15947767939610902,0,FALSE,FALSE,0.025105508259456892,-0.4407753511793361
PKO,HUGH CREEK,910-650400-00000-00000-0000-0000-000-000-000-000-000-000,6,PKO-13,1991,0,53.254,3.975072919139258,4200,8.34283980427146,1498.09082556145,5534.3206454192205,0.3566882918003452,-1.0308930108163716,0.01,0.012,0.001,0.22417,0.213666,CWH,-0.18487911555035336,0,FALSE,FALSE,0.025105508259456892,-0.4407753511793361
PKO,HUGH CREEK,910-650400-00000-00000-0000-0000-000-000-000-000-000-000,6,PKO-13,1993,0,53.254,3.975072919139258,1400,7.24422751560335,4774.91681083088,1498.09082556145,3.4106548648792003,1.2269043153441965,0.0095,0.0114,0.001,0.22417,0.213666,CWH,-1.7567819796155162,0,FALSE,FALSE,0.025105508259456892,-0.4486708003766808
PKO,HUGH CREEK,910-650400-00000-00000-0000-0000-000-000-000-000-000-000,6,PKO-13,1995,0,53.254,3.975072919139258,4200,8.34283980427146,765.442987740755,4774.91681083088,0.18224833041446548,-1.7023850690984839,0.0095,0.0114,0.001,0.22417,0.213666,CWH,-0.5672147431639023,0,FALSE,FALSE,0.025105508259456892,-0.4486708003766808
PKO,HUGH CREEK,910-650400-00000-00000-0000-0000-000-000-000-000-000-000,6,PKO-13,1997,0,53.254,3.975072919139258,650,6.476972362889683,5685.75356571155,765.442987740755,8.74731317801777,2.1687465878459014,0.0095,0.0114,0.001,0.22417,0.213666,CWH,0.8907774948170872,0,FALSE,FALSE,0.025105508259456892,-0.4486708003766808
PKO,HUGH CREEK,910-650400-00000-00000-0000-0000-000-000-000-000-000-000,6,PKO-13,1999,0,53.254,3.975072919139258,5200,8.556413904569519,15694.0806732818,5685.75356571155,3.0180924371695768,1.1046249884947605,0.0036,0.0043,0.001,0.22417,0.213666,CWH,1.6302835492491898,0,FALSE,FALSE,0.025105508259456892,-0.5421002825452592
PKO,HUGH CREEK,910-650400-00000-00000-0000-0000-000-000-000-000-000-000,6,PKO-13,2001,0,53.254,3.975072919139258,11500,9.350102314351341,38362.3121846116,15694.0806732818,3.3358532334444866,1.2047284887578646,0.0036,0.0043,0.001,0.22417,0.213666,CWH,1.9190067210816288,0,FALSE,FALSE,0.025105508259456892,-0.5421002825452592
PKO,HUGH CREEK,910-650400-00000-00000-0000-0000-000-000-000-000-000-000,6,PKO-13,2003,0,53.254,3.975072919139258,26000,10.165851817003619,43273.1028295415,38362.3121846116,1.6643501088285193,0.5094347222078488,0.0036,0.0043,0.001,0.22417,0.213666,CWH,0.41101277747559006,0,FALSE,FALSE,0.025105508259456892,-0.5421002825452592
PKO,HUGH CREEK,910-650400-00000-00000-0000-0000-000-000-000-000-000-000,6,PKO-13,2005,0,53.254,3.975072919139258,29000,10.275051108968611,21168.6407372592,43273.1028295415,0.7299531288710069,-0.31477495392707744,0.0036,0.0043,0.001,0.22417,0.213666,CWH,-0.8145696192436794,0,FALSE,FALSE,0.025105508259456892,-0.5421002825452592
PKO,HUGH CREEK,910-650400-00000-00000-0000-0000-000-000-000-000-000-000,6,PKO-13,2007,0,53.254,3.975072919139258,17000,9.740968623038354,45146.2305886139,21168.6407372592,2.6556606228596413,0.9766934459121567,0.0036,0.0043,0.001,0.22417,0.213666,CWH,0.8768892458318005,0,FALSE,FALSE,0.025105508259456892,-0.5421002825452592
PKO,HUGH CREEK,910-650400-00000-00000-0000-0000-000-000-000-000-000-000,6,PKO-13,2009,0,53.254,3.975072919139258,35000,10.46310334047155,12586.648267805,45146.2305886139,0.3596185219372857,-1.022711470655259,0.001,0.0012,0.001,0.22417,0.213666,CWH,1.604652193542091,0,FALSE,FALSE,0.025105508259456892,-0.5828934367315398
PKO,HUGH CREEK,910-650400-00000-00000-0000-0000-000-000-000-000-000-000,6,PKO-13,2011,0,53.254,3.975072919139258,10600,9.268609280100158,89054.8500486196,12586.648267805,8.401400947982982,2.128398471464893,0.001,0.0012,0.001,0.22417,0.213666,CWH,0.7408851700104637,0,FALSE,FALSE,0.025105508259456892,-0.5828934367315398
PKO,HUGH CREEK,910-650400-00000-00000-0000-0000-000-000-000-000-000-000,6,PKO-13,2013,0,53.254,3.975072919139258,68100,11.128732492137603,4091.91026873514,89054.8500486196,0.06008678808715331,-2.811965293768117,9e-4,0.001,0.001,0.22417,0.213666,CWH,-0.5528640906240193,0,FALSE,FALSE,0.025105508259456892,-0.5855252531306547
PKO,EAGLE BAY CREEK,910-654500-00000-00000-0000-0000-000-000-000-000-000-000,6,PKO-13,1975,0,3.944,1.372195436740389,300,5.703782474656201,17.2159773731924,430.629596891998,0.05738659124397466,-2.857944604967166,0,0,0.021,0.22534,0.209588,CWH,1.2286162579398736,0,FALSE,FALSE,-1.7990032896020405,-0.5986843351262291
PKO,EAGLE BAY CREEK,910-654500-00000-00000-0000-0000-000-000-000-000-000-000,6,PKO-13,1977,0,3.944,1.372195436740389,10,2.302585092994046,252.355542148635,17.2159773731924,25.2355542148635,3.2282538817013884,0,0,0.021,0.22534,0.209588,CWH,0.9724829797884954,0,FALSE,FALSE,-1.7990032896020405,-0.5986843351262291
PKO,EAGLE BAY CREEK,910-654500-00000-00000-0000-0000-000-000-000-000-000-000,6,PKO-13,1979,0,3.944,1.372195436740389,150,5.0106352940962555,584.417060258407,252.355542148635,3.8961137350560464,1.3599795781303805,0,0,0.021,0.22534,0.209588,CWH,-1.19975713829789,0,FALSE,FALSE,-1.7990032896020405,-0.5986843351262291
PKO,EAGLE BAY CREEK,910-654500-00000-00000-0000-0000-000-000-000-000-000-000,6,PKO-13,1985,0,3.944,1.372195436740389,2500,7.824046010856292,5143.82631145386,4549.43785125959,2.0575305245815443,0.7215064892216364,0,0,0.021,0.22534,0.209588,CWH,-0.9758993397997916,0,FALSE,FALSE,-1.7990032896020405,-0.5986843351262291
PKO,EAGLE BAY CREEK,910-654500-00000-00000-0000-0000-000-000-000-000-000-000,6,PKO-13,1987,0,3.944,1.372195436740389,2500,7.824046010856292,111.200473046812,5143.82631145386,0.0444801892187248,-3.112711375030765,0,0,0.021,0.22534,0.209588,CWH,0.8862048812919091,0,FALSE,FALSE,-1.7990032896020405,-0.5986843351262291
PKO,EAGLE BAY CREEK,910-654500-00000-00000-0000-0000-000-000-000-000-000-000,6,PKO-13,1989,0,3.944,1.372195436740389,100,4.605170185988092,3953.08617529944,111.200473046812,39.530861752994404,3.6770816770455395,0,0,0.021,0.22534,0.209588,CWH,0.15947767939610902,0,FALSE,FALSE,-1.7990032896020405,-0.5986843351262291
PKO,EAGLE BAY CREEK,910-654500-00000-00000-0000-0000-000-000-000-000-000-000,6,PKO-13,1995,0,3.944,1.372195436740389,20,2.995732273553991,117.760459652424,22.7376990991947,5.8880229826212,1.7729202847173948,0,0,0.021,0.22534,0.209588,CWH,-0.5672147431639023,0,FALSE,FALSE,-1.7990032896020405,-0.5986843351262291
PKO,EAGLE BAY CREEK,910-654500-00000-00000-0000-0000-000-000-000-000-000-000,6,PKO-13,1997,0,3.944,1.372195436740389,100,4.605170185988092,328.024244175667,117.760459652424,3.28024244175667,1.1879173348341772,0,0,0.021,0.22534,0.209588,CWH,0.8907774948170872,0,FALSE,FALSE,-1.7990032896020405,-0.5986843351262291
PKO,EAGLE BAY CREEK,910-654500-00000-00000-0000-0000-000-000-000-000-000-000,6,PKO-13,1999,0,3.944,1.372195436740389,300,5.703782474656201,9552.9186706933,328.024244175667,31.843062235644332,3.4608195320941904,0,0,0.021,0.22534,0.209588,CWH,1.6302835492491898,0,FALSE,FALSE,-1.7990032896020405,-0.5986843351262291
PKO,EAGLE BAY CREEK,910-654500-00000-00000-0000-0000-000-000-000-000-000-000,6,PKO-13,2001,0,3.944,1.372195436740389,7000,8.85366542803745,29509.4709112397,9552.9186706933,4.215638701605672,1.438801110604265,0,0,0.021,0.22534,0.209588,CWH,1.9190067210816288,0,FALSE,FALSE,-1.7990032896020405,-0.5986843351262291
PKO,EAGLE BAY CREEK,910-654500-00000-00000-0000-0000-000-000-000-000-000-000,6,PKO-13,2003,0,3.944,1.372195436740389,20000,9.903487552536127,74608.7979819681,29509.4709112397,3.730439899098405,1.316526162117012,0,0,0.021,0.22534,0.209588,CWH,0.41101277747559006,0,FALSE,FALSE,-1.7990032896020405,-0.5986843351262291
PKO,EAGLE BAY CREEK,910-654500-00000-00000-0000-0000-000-000-000-000-000-000,6,PKO-13,2005,0,3.944,1.372195436740389,50000,10.819778284410283,6475.11363727929,74608.7979819681,0.1295022727455858,-2.044056847837583,0,0,0.021,0.22534,0.209588,CWH,-0.8145696192436794,0,FALSE,FALSE,-1.7990032896020405,-0.5986843351262291
PKO,EAGLE BAY CREEK,910-654500-00000-00000-0000-0000-000-000-000-000-000-000,6,PKO-13,2007,0,3.944,1.372195436740389,5200,8.556413904569519,39341.7152272207,6475.11363727929,7.565714466773212,2.023626786504944,0,0,0.021,0.22534,0.209588,CWH,0.8768892458318005,0,FALSE,FALSE,-1.7990032896020405,-0.5986843351262291
PKO,EAGLE BAY CREEK,910-654500-00000-00000-0000-0000-000-000-000-000-000-000,6,PKO-13,2009,0,3.944,1.372195436740389,30500,10.325481962595504,4037.22680288086,39341.7152272207,0.1323680918977331,-2.0221686622751145,0,0,0.021,0.22534,0.209588,CWH,1.604652193542091,0,FALSE,FALSE,-1.7990032896020405,-0.5986843351262291
PKO,EAGLE BAY CREEK,910-654500-00000-00000-0000-0000-000-000-000-000-000-000,6,PKO-13,2011,0,3.944,1.372195436740389,3400,8.131530710604252,102393.461950175,4037.22680288086,30.115724102992647,3.40504743080209,0,0,0.021,0.22534,0.209588,CWH,0.7408851700104637,0,FALSE,FALSE,-1.7990032896020405,-0.5986843351262291
PKO,EAGLE BAY CREEK,910-654500-00000-00000-0000-0000-000-000-000-000-000-000,6,PKO-13,2013,0,3.944,1.372195436740389,78300,11.268302881978894,504.48208792625,102393.461950175,0.006442938543119413,-5.04477054742158,0,0,0.021,0.22534,0.209588,CWH,-0.5528640906240193,0,FALSE,FALSE,-1.7990032896020405,-0.5986843351262291
PKO,KILDALA RIVER,910-659800-00000-00000-0000-0000-000-000-000-000-000-000,6,PKO-13,1955,13946.2871073613,350.965,5.86068650339427,1500,7.313220387090301,1328.86563274022,2870.31985043766,0.8859104218268133,-0.12113943752135542,0.0209,0.0407,0.01,0.07459,0.219288,CWH,-0.07106879047729574,0.0195554841096842,FALSE,FALSE,1.3465523883626034,-0.06310969790635039
PKO,KILDALA RIVER,910-659800-00000-00000-0000-0000-000-000-000-000-000-000,6,PKO-13,1957,811544.305958018,350.965,5.86068650339427,750,6.620073206530356,1031.48488225912,1328.86563274022,1.3753131763454933,0.31868146979901685,0.0233,0.0453,0.01,0.07459,0.219288,CWH,-0.3276691034772351,0.0195554841096842,FALSE,FALSE,1.3465523883626034,-0.002577920726708068
PKO,KILDALA RIVER,910-659800-00000-00000-0000-0000-000-000-000-000-000-000,6,PKO-13,1959,0,350.965,5.86068650339427,750,6.620073206530356,49.2332611791007,1031.48488225912,0.06564434823880093,-2.723503771218725,0.0191,0.0372,0.01,0.07459,0.219288,CWH,0.7824977620566573,0.0195554841096842,FALSE,FALSE,1.3465523883626034,-0.10916648489086088
PKO,KILDALA RIVER,910-659800-00000-00000-0000-0000-000-000-000-000-000-000,6,PKO-13,1961,0,350.965,5.86068650339427,25,3.2188758248682006,784.910517581357,49.2332611791007,31.39642070325428,3.4466938960745943,0.0192,0.0373,0.01,0.07459,0.219288,CWH,0.00583928468743269,0.0195554841096842,FALSE,FALSE,1.3465523883626034,-0.10785057669130341
PKO,KILDALA RIVER,910-659800-00000-00000-0000-0000-000-000-000-000-000-000,6,PKO-13,1967,1394665.71382842,350.965,5.86068650339427,1500,7.313220387090301,233.797124013883,2182.43419966344,0.15586474934258868,-1.8587666391806736,0.0198,0.0386,0.01,0.07459,0.219288,CWH,-0.48089809283299456,0.0195554841096842,FALSE,FALSE,1.3465523883626034,-0.09074377009705663
PKO,KILDALA RIVER,910-659800-00000-00000-0000-0000-000-000-000-000-000-000,6,PKO-13,1969,0,350.965,5.86068650339427,200,5.298317366548036,970.09397401216,233.797124013883,4.8504698700608,1.5790755806816936,0.0145,0.0282,0.01,0.07459,0.219288,CWH,0.09673401232408343,0.0195554841096842,FALSE,FALSE,1.3465523883626034,-0.2275982228510306
PKO,KILDALA RIVER,910-659800-00000-00000-0000-0000-000-000-000-000-000-000,6,PKO-13,1971,0,350.965,5.86068650339427,750,6.620073206530356,863.800396818846,970.09397401216,1.151733862425128,0.14126851338355062,0.0145,0.0283,0.01,0.07459,0.219288,CWH,-0.34080392906905344,0.0195554841096842,FALSE,FALSE,1.3465523883626034,-0.22628231465147317
PKO,KILDALA RIVER,910-659800-00000-00000-0000-0000-000-000-000-000-000-000,6,PKO-13,1973,0,350.965,5.86068650339427,500,6.214608098422191,2153.14798445999,863.800396818846,4.306295968919979,1.4600781306534742,0.0493,0.096,0.01,0.07459,0.219288,CWH,-0.20355231452664888,0.0195554841096842,FALSE,FALSE,1.3465523883626034,0.6645875364489149
PKO,KILDALA RIVER,910-659800-00000-00000-0000-0000-000-000-000-000-000-000,6,PKO-13,1975,95106.2376128526,350.965,5.86068650339427,1500,7.313220387090301,1377.2781898554,2153.14798445999,0.9181854599035999,-0.0853558827273788,0.0467,0.0909,0.01,0.07459,0.219288,CWH,1.2286162579398736,0.0195554841096842,FALSE,FALSE,1.3465523883626034,0.5974762182714852
PKO,KILDALA RIVER,910-659800-00000-00000-0000-0000-000-000-000-000-000-000,6,PKO-13,1977,2431532.10265101,350.965,5.86068650339427,800,6.684611727667927,1682.3702809909,1377.2781898554,2.102962851238625,0.7433472319133879,0.053900000000000003,0.105,0.01,0.07459,0.219288,CWH,0.9724829797884954,0.0195554841096842,FALSE,FALSE,1.3465523883626034,0.7830192744090846
PKO,KILDALA RIVER,910-659800-00000-00000-0000-0000-000-000-000-000-000-000,6,PKO-13,1979,0,350.965,5.86068650339427,1000,6.907755278982137,5844.17060258407,1682.3702809909,5.844170602584071,1.7654446862385451,0.051,0.0993,0.01,0.07459,0.219288,CWH,-1.19975713829789,0.0195554841096842,FALSE,FALSE,1.3465523883626034,0.7080125070343104
PKO,KILDALA RIVER,910-659800-00000-00000-0000-0000-000-000-000-000-000-000,6,PKO-13,1981,0,350.965,5.86068650339427,2000,7.600902459542082,343.754068920233,5844.17060258407,0.1718770344601165,-1.7609759737724966,0.051,0.0992,0.01,0.07459,0.219288,CWH,-0.22613906119882837,0.0195554841096842,FALSE,FALSE,1.3465523883626034,0.706696598834753
PKO,KILDALA RIVER,910-659800-00000-00000-0000-0000-000-000-000-000-000-000,6,PKO-13,1983,0,350.965,5.86068650339427,200,5.298317366548036,27296.6271075576,343.754068920233,136.483135537788,4.916201057818473,0.0424,0.0825,0.01,0.07459,0.219288,CWH,0.10267616261581472,0.0195554841096842,FALSE,FALSE,1.3465523883626034,0.4869399295086603
PKO,KILDALA RIVER,910-659800-00000-00000-0000-0000-000-000-000-000-000-000,6,PKO-13,1985,0,350.965,5.86068650339427,15000,9.615805480084347,41150.6104916308,27296.6271075576,2.743374032775387,1.0091885616734155,0.0423,0.0824,0.01,0.07459,0.219288,CWH,-0.9758993397997916,0.0195554841096842,FALSE,FALSE,1.3465523883626034,0.4856240213091028
PKO,KILDALA RIVER,910-659800-00000-00000-0000-0000-000-000-000-000-000-000,6,PKO-13,1987,527743.48338452,350.965,5.86068650339427,20000,9.903487552536127,8896.03784374499,41150.6104916308,0.4448018921872495,-0.8101262820367158,0.0436,0.0848,0.01,0.07459,0.219288,CWH,0.8862048812919091,0.0195554841096842,FALSE,FALSE,1.3465523883626034,0.5172058180984814
PKO,KILDALA RIVER,910-659800-00000-00000-0000-0000-000-000-000-000-000-000,6,PKO-13,1989,0,350.965,5.86068650339427,8000,8.987196820661973,32942.384794162,8896.03784374499,4.117798099270249,1.4153185785717486,0.0382,0.0743,0.01,0.07459,0.219288,CWH,0.15947767939610902,0.0195554841096842,FALSE,FALSE,1.3465523883626034,0.37903545714495007
PKO,KILDALA RIVER,910-659800-00000-00000-0000-0000-000-000-000-000-000-000,6,PKO-13,2007,0,350.965,5.86068650339427,15000,9.615805480084347,128989.230253183,18678.2124152287,8.599282016878867,2.1516787133648436,0.019,0.037,0.01,0.07459,0.219288,CWH,0.8768892458318005,0.0195554841096842,FALSE,FALSE,1.3465523883626034,-0.11179830128997575
PKO,DALA RIVER,910-661200-00000-00000-0000-0000-000-000-000-000-000-000,6,PKO-13,1955,400031.948709404,413.39,6.024391457308263,1500,7.313220387090301,708.728337461451,2870.31985043766,0.472485558307634,-0.7497480969437291,0.0257,0.0429,0.006,0.17089,0.235316,MH,-0.07106879047729574,5.1655124043688e-4,FALSE,FALSE,1.4612775910305429,-0.03415971751608666
PKO,DALA RIVER,910-661200-00000-00000-0000-0000-000-000-000-000-000-000,6,PKO-13,1957,415264.395735439,413.39,6.024391457308263,400,5.991464547107982,550.125270538199,708.728337461451,1.3753131763454973,0.31868146979901973,0.0263,0.0439,0.006,0.17089,0.235316,MH,-0.3276691034772351,5.1655124043688e-4,FALSE,FALSE,1.4612775910305429,-0.02100063552051223
PKO,DALA RIVER,910-661200-00000-00000-0000-0000-000-000-000-000-000-000,6,PKO-13,1963,2015302.93941124,413.39,6.024391457308263,1500,7.313220387090301,4560.08928144083,2943.41444093009,3.040059520960553,1.1118770944897989,0.0263,0.0438,0.006,0.17089,0.235316,MH,0.5797944041154652,5.1655124043688e-4,FALSE,FALSE,1.4612775910305429,-0.02231654372006971
PKO,DALA RIVER,910-661200-00000-00000-0000-0000-000-000-000-000-000-000,6,PKO-13,1965,0,413.39,6.024391457308263,1500,7.313220387090301,21824.3419966344,4560.08928144083,14.5495613310896,2.6775608440970027,0.0226,0.0376,0.006,0.17089,0.235316,MH,-0.7093794641235007,5.1655124043688e-4,FALSE,FALSE,1.4612775910305429,-0.10390285209263106
PKO,DALA RIVER,910-661200-00000-00000-0000-0000-000-000-000-000-000-000,6,PKO-13,1967,81122.168405189,413.39,6.024391457308263,15000,9.615805480084347,584.492810034707,21824.3419966344,0.03896618733564713,-3.2450610003005655,0.0217,0.0362,0.006,0.17089,0.235316,MH,-0.48089809283299456,5.1655124043688e-4,FALSE,FALSE,1.4612775910305429,-0.12232556688643521
PKO,DALA RIVER,910-661200-00000-00000-0000-0000-000-000-000-000-000-000,6,PKO-13,1969,0,413.39,6.024391457308263,500,6.214608098422191,3233.64658004053,584.492810034707,6.46729316008106,1.8667576531334737,0.0188,0.0314,0.006,0.17089,0.235316,MH,0.09673401232408343,5.1655124043688e-4,FALSE,FALSE,1.4612775910305429,-0.18548916046519248
PKO,DALA RIVER,910-661200-00000-00000-0000-0000-000-000-000-000-000-000,6,PKO-13,1971,0,413.39,6.024391457308263,2500,7.824046010856292,863.800396818846,3233.64658004053,0.3455201587275384,-1.0627042909423854,0.0186,0.031,0.006,0.17089,0.235316,MH,-0.34080392906905344,5.1655124043688e-4,FALSE,FALSE,1.4612775910305429,-0.19075279326342223