Species,River,WATERSHED_CDE,DFO,CU,BroodYear,hararea_m2_3005,area_km2,ln_area_km2,Spawners,logS,Recruits,Returns,recruitPerSpawner,ln_RS,ECA_age_proxy,ECA_age_proxy_forested_only,lake_cover_pct,var_eaubc_KFACTOR,var_eaubc_MELTONS_R,vri_bec_zone,npgo,portion_reporting_vri_cover1_missing,hatchery_enhancement,year_of_enhacement,ln_area_km2_std,ECA_age_proxy_forested_only_std
PKO,BELOWE CREEK,910-736000-00000-00000-0000-0000-000-000-000-000-000-000,5,PKO-12,1977,709556.521296682,31.004,3.4341162284192652,500,6.214608098422191,151.368257794795,978.929591904634,0.30273651558958997,-1.194892437294485,0.0361,0.0673,0.132,0.22391,0.160474,CWH,0.9724829797884954,0,FALSE,FALSE,-0.35399948822119054,0.2869218831759291
PKO,BELOWE CREEK,910-736000-00000-00000-0000-0000-000-000-000-000-000-000,5,PKO-12,1979,0,31.004,3.4341162284192652,100,4.605170185988092,1034.7032346131,151.368257794795,10.347032346131,2.336699748754102,0.0359,0.067,0.132,0.22391,0.160474,CWH,-1.19975713829789,0,FALSE,FALSE,-0.35399948822119054,0.28297415857725683
PKO,BELOWE CREEK,910-736000-00000-00000-0000-0000-000-000-000-000-000-000,5,PKO-12,1981,0,31.004,3.4341162284192652,500,6.214608098422191,1509.57052314052,1034.7032346131,3.0191410462810397,1.1049723691699929,0.0359,0.067,0.132,0.22391,0.160474,CWH,-0.22613906119882837,0,FALSE,FALSE,-0.35399948822119054,0.28297415857725683
PKO,BELOWE CREEK,910-736000-00000-00000-0000-0000-000-000-000-000-000-000,5,PKO-12,1983,0,31.004,3.4341162284192652,1000,6.907755278982137,24223.4363177172,1509.57052314052,24.2234363177172,3.187320607405252,0.0421,0.0784,0.132,0.22391,0.160474,CWH,0.10267616261581472,0,FALSE,FALSE,-0.35399948822119054,0.4329876933268051
PKO,BELOWE CREEK,910-736000-00000-00000-0000-0000-000-000-000-000-000-000,5,PKO-12,1985,0,31.004,3.4341162284192652,15000,9.615805480084347,9064.22322667029,24223.4363177172,0.6042815484446861,-0.5037150498476499,0.0421,0.0784,0.132,0.22391,0.160474,CWH,-0.9758993397997916,0,FALSE,FALSE,-0.35399948822119054,0.4329876933268051
PKO,BELOWE CREEK,910-736000-00000-00000-0000-0000-000-000-000-000-000-000,5,PKO-12,1987,0,31.004,3.4341162284192652,5000,8.517193191416238,1788.50902482071,9064.22322667029,0.357701804964142,-1.028055586702102,0.0421,0.0784,0.132,0.22391,0.160474,CWH,0.8862048812919091,0,FALSE,FALSE,-0.35399948822119054,0.4329876933268051
PKO,BELOWE CREEK,910-736000-00000-00000-0000-0000-000-000-000-000-000-000,5,PKO-12,1989,0,31.004,3.4341162284192652,1500,7.313220387090301,2127.65153466144,1788.50902482071,1.41843435644096,0.34955369745360587,0.036,0.0672,0.132,0.22391,0.160474,CWH,0.15947767939610902,0,FALSE,FALSE,-0.35399948822119054,0.2856059749763716
PKO,BELOWE CREEK,910-736000-00000-00000-0000-0000-000-000-000-000-000-000,5,PKO-12,1991,0,31.004,3.4341162284192652,1500,7.313220387090301,1251.20155387622,2127.65153466144,0.8341343692508133,-0.1813607753912824,0.036,0.0672,0.132,0.22391,0.160474,CWH,-0.18487911555035336,0,FALSE,FALSE,-0.35399948822119054,0.2856059749763716
PKO,BELOWE CREEK,910-736000-00000-00000-0000-0000-000-000-000-000-000-000,5,PKO-12,1993,0,31.004,3.4341162284192652,1000,6.907755278982137,4752.09142721673,1251.20155387622,4.7520914272167305,1.558584821609423,0.031,0.0578,0.132,0.22391,0.160474,CWH,-1.7567819796155162,0,FALSE,FALSE,-0.35399948822119054,0.1619106042179721
PKO,BELOWE CREEK,910-736000-00000-00000-0000-0000-000-000-000-000-000-000,5,PKO-12,1999,0,31.004,3.4341162284192652,15000,9.615805480084347,19177.7712141501,16965.6342630702,1.27851808094334,0.2457016579591067,0.0195,0.0364,0.132,0.22391,0.160474,CWH,1.6302835492491898,0,FALSE,FALSE,-0.35399948822119054,-0.11969375048732035
PKO,BELOWE CREEK,910-736000-00000-00000-0000-0000-000-000-000-000-000-000,5,PKO-12,2001,0,31.004,3.4341162284192652,15000,9.615805480084347,3746.68318314517,19177.7712141501,0.24977887887634467,-1.3871792370017235,0.0195,0.0364,0.132,0.22391,0.160474,CWH,1.9190067210816288,0,FALSE,FALSE,-0.35399948822119054,-0.11969375048732035
PKO,BELOWE CREEK,910-736000-00000-00000-0000-0000-000-000-000-000-000-000,5,PKO-12,2003,0,31.004,3.4341162284192652,3000,8.006367567650246,6244.87087678451,3746.68318314517,2.081623625594837,0.7331481784401919,0.0097,0.0181,0.132,0.22391,0.160474,CWH,0.41101277747559006,0,FALSE,FALSE,-0.35399948822119054,-0.3605049510063322
PKO,BELOWE CREEK,910-736000-00000-00000-0000-0000-000-000-000-000-000-000,5,PKO-12,2005,0,31.004,3.4341162284192652,5000,8.517193191416238,4077.84997760037,6244.87087678451,0.815569995520074,-0.20386802918797395,0.0097,0.0181,0.132,0.22391,0.160474,CWH,-0.8145696192436794,0,FALSE,FALSE,-0.35399948822119054,-0.3605049510063322
PKO,BELOWE CREEK,910-736000-00000-00000-0000-0000-000-000-000-000-000-000,5,PKO-12,2007,0,31.004,3.4341162284192652,3500,8.160518247477505,7040.97654811432,4077.84997760037,2.01170758517552,0.6989839062754392,0.0097,0.0181,0.132,0.22391,0.160474,CWH,0.8768892458318005,0,FALSE,FALSE,-0.35399948822119054,-0.3605049510063322
PKO,BELOWE CREEK,910-736000-00000-00000-0000-0000-000-000-000-000-000-000,5,PKO-12,2009,0,31.004,3.4341162284192652,6050,8.707813551024888,1367.72314682099,7040.97654811432,0.22606994162330413,-1.486910851378425,0.0097,0.0181,0.132,0.22391,0.160474,CWH,1.604652193542091,0,FALSE,FALSE,-0.35399948822119054,-0.3605049510063322
PKO,BELOWE CREEK,910-736000-00000-00000-0000-0000-000-000-000-000-000-000,5,PKO-12,2011,0,31.004,3.4341162284192652,1200,7.090076835776092,13177.4426076042,1367.72314682099,10.9812021730035,2.3961849176111505,0.0097,0.0181,0.132,0.22391,0.160474,CWH,0.7408851700104637,0,FALSE,FALSE,-0.35399948822119054,-0.3605049510063322
PKO,BELOWE CREEK,910-736000-00000-00000-0000-0000-000-000-000-000-000-000,5,PKO-12,2013,0,31.004,3.4341162284192652,10900,9.296518068217235,1140.43523768847,13177.4426076042,0.10462708602646513,-2.25735281224495,0.009,0.0169,0.132,0.22391,0.160474,CWH,-0.5528640906240193,0,FALSE,FALSE,-0.35399948822119054,-0.3762958494010215
PKO,KUMEALON CREEK,910-768900-00000-00000-0000-0000-000-000-000-000-000-000,5,PKO-12,1955,0,51.949,3.9502624680818146,3500,8.160518247477505,14947.1409903901,7144.42277749679,4.270611711540028,1.4517570749519935,7e-4,0.0014,0.09,0.2351,0.186203,CWH,-0.07106879047729574,0,FALSE,FALSE,0.0077182273141068345,-0.580261620332425
PKO,KUMEALON CREEK,910-768900-00000-00000-0000-0000-000-000-000-000-000-000,5,PKO-12,1957,93583.8537866139,51.949,3.9502624680818146,7500,8.922658299524402,111712.968951606,14947.1409903901,14.8950625268808,2.70102978400006,0.0025,0.0051,0.09,0.2351,0.186203,CWH,-0.3276691034772351,0,FALSE,FALSE,0.0077182273141068345,-0.5315730169487997
PKO,KUMEALON CREEK,910-768900-00000-00000-0000-0000-000-000-000-000-000-000,5,PKO-12,1959,0,51.949,3.9502624680818146,75000,11.225243392518447,172050.243818938,111712.968951606,2.2940032509191735,0.8302984358461807,0.0025,0.0051,0.09,0.2351,0.186203,CWH,0.7824977620566573,0,FALSE,FALSE,0.0077182273141068345,-0.5315730169487997
PKO,KUMEALON CREEK,910-768900-00000-00000-0000-0000-000-000-000-000-000-000,5,PKO-12,1961,0,51.949,3.9502624680818146,75000,11.225243392518447,135345.563833405,172050.243818938,1.8046075177787333,0.590343126467144,0.0025,0.0051,0.09,0.2351,0.186203,CWH,0.00583928468743269,0,FALSE,FALSE,0.0077182273141068345,-0.5315730169487997
PKO,KUMEALON CREEK,910-768900-00000-00000-0000-0000-000-000-000-000-000-000,5,PKO-12,1963,0,51.949,3.9502624680818146,75000,11.225243392518447,84709.981051781,135345.563833405,1.1294664140237467,0.12174532122374555,0.0018,0.0037,0.09,0.2351,0.186203,CWH,0.5797944041154652,0,FALSE,FALSE,0.0077182273141068345,-0.5499957317426037
PKO,KUMEALON CREEK,910-768900-00000-00000-0000-0000-000-000-000-000-000-000,5,PKO-12,1965,0,51.949,3.9502624680818146,35000,10.46310334047155,16280.6727549089,84709.981051781,0.46516207871168286,-0.7653693777572297,0.0018,0.0037,0.09,0.2351,0.186203,CWH,-0.7093794641235007,0,FALSE,FALSE,0.0077182273141068345,-0.5499957317426037
PKO,KUMEALON CREEK,910-768900-00000-00000-0000-0000-000-000-000-000-000-000,5,PKO-12,1967,0,51.949,3.9502624680818146,7500,8.922658299524402,13448.7107191738,16280.6727549089,1.7931614292231732,0.5839802236004795,0.0018,0.0037,0.09,0.2351,0.186203,CWH,-0.48089809283299456,0,FALSE,FALSE,0.0077182273141068345,-0.5499957317426037
PKO,KUMEALON CREEK,910-768900-00000-00000-0000-0000-000-000-000-000-000-000,5,PKO-12,1969,0,51.949,3.9502624680818146,7500,8.922658299524402,20907.8221831595,13448.7107191738,2.7877096244212667,1.0252203355448444,0.0014,0.0028,0.09,0.2351,0.186203,CWH,0.09673401232408343,0,FALSE,FALSE,0.0077182273141068345,-0.5618389055386208
PKO,KUMEALON CREEK,910-768900-00000-00000-0000-0000-000-000-000-000-000-000,5,PKO-12,1971,0,51.949,3.9502624680818146,15000,9.615805480084347,9486.20258490255,20907.8221831595,0.6324135056601701,-0.45821181767598307,0.0014,0.0028,0.09,0.2351,0.186203,CWH,-0.34080392906905344,0,FALSE,FALSE,0.0077182273141068345,-0.5618389055386208
PKO,KUMEALON CREEK,910-768900-00000-00000-0000-0000-000-000-000-000-000-000,5,PKO-12,1973,0,51.949,3.9502624680818146,5000,8.517193191416238,46009.0476117329,9486.20258490255,9.201809522346581,2.2194001519261857,0.0014,0.0028,0.09,0.2351,0.186203,CWH,-0.20355231452664888,0,FALSE,FALSE,0.0077182273141068345,-0.5618389055386208
PKO,KUMEALON CREEK,910-768900-00000-00000-0000-0000-000-000-000-000-000-000,5,PKO-12,1975,0,51.949,3.9502624680818146,30000,10.308952660644293,97892.9591904634,46009.0476117329,3.2630986396821133,1.1826772469066837,0.0014,0.0028,0.09,0.2351,0.186203,CWH,1.2286162579398736,0,FALSE,FALSE,0.0077182273141068345,-0.5618389055386208
PKO,KUMEALON CREEK,910-768900-00000-00000-0000-0000-000-000-000-000-000-000,5,PKO-12,1977,0,51.949,3.9502624680818146,50000,10.819778284410283,21191.5560912714,97892.9591904634,0.423831121825428,-0.8584202006732672,0.0014,0.0028,0.09,0.2351,0.186203,CWH,0.9724829797884954,0,FALSE,FALSE,0.0077182273141068345,-0.5618389055386208
PKO,KUMEALON CREEK,910-768900-00000-00000-0000-0000-000-000-000-000-000-000,5,PKO-12,1979,0,51.949,3.9502624680818146,14000,9.546812608597396,70359.8199536907,21191.5560912714,5.025701425263621,1.614565031320903,5e-4,9e-4,0.09,0.2351,0.186203,CWH,-1.19975713829789,0,FALSE,FALSE,0.0077182273141068345,-0.5868411613302122
PKO,KUMEALON CREEK,910-768900-00000-00000-0000-0000-000-000-000-000-000-000,5,PKO-12,1981,0,51.949,3.9502624680818146,34000,10.4341158035983,15095.7052314052,70359.8199536907,0.4439913303354471,-0.811950243012068,5e-4,9e-4,0.09,0.2351,0.186203,CWH,-0.22613906119882837,0,FALSE,FALSE,0.0077182273141068345,-0.5868411613302122
PKO,KUMEALON CREEK,910-768900-00000-00000-0000-0000-000-000-000-000-000-000,5,PKO-12,1983,0,51.949,3.9502624680818146,10000,9.210340371976184,64595.8301805791,15095.7052314052,6.45958301805791,1.8655647674229308,5e-4,9e-4,0.09,0.2351,0.186203,CWH,0.10267616261581472,0,FALSE,FALSE,0.0077182273141068345,-0.5868411613302122
PKO,KUMEALON CREEK,910-768900-00000-00000-0000-0000-000-000-000-000-000-000,5,PKO-12,1985,0,51.949,3.9502624680818146,40000,10.596634733096073,54385.3393600218,64595.8301805791,1.3596334840005448,0.30721516636867974,5e-4,9e-4,0.09,0.2351,0.186203,CWH,-0.9758993397997916,0,FALSE,FALSE,0.0077182273141068345,-0.5868411613302122
PKO,KUMEALON CREEK,910-768900-00000-00000-0000-0000-000-000-000-000-000-000,5,PKO-12,1987,0,51.949,3.9502624680818146,30000,10.308952660644293,41731.8772458166,54385.3393600218,1.3910625748605532,0.33006789745109305,5e-4,9e-4,0.09,0.2351,0.186203,CWH,0.8862048812919091,0,FALSE,FALSE,0.0077182273141068345,-0.5868411613302122
PKO,KUMEALON CREEK,910-768900-00000-00000-0000-0000-000-000-000-000-000-000,5,PKO-12,1989,280868.46662448,51.949,3.9502624680818146,35000,10.46310334047155,17021.2122772915,41731.8772458166,0.4863203507797571,-0.7208877142478087,0.0059,0.0121,0.09,0.2351,0.186203,CWH,0.15947767939610902,0,FALSE,FALSE,0.0077182273141068345,-0.4394594429797787
PKO,KUMEALON CREEK,910-768900-00000-00000-0000-0000-000-000-000-000-000-000,5,PKO-12,1991,0,51.949,3.9502624680818146,12000,9.392661928770137,12512.0155387622,17021.2122772915,1.0426679615635166,0.041782775922927326,0.0059,0.0121,0.09,0.2351,0.186203,CWH,-0.18487911555035336,0,FALSE,FALSE,0.0077182273141068345,-0.4394594429797787
PKO,KUMEALON CREEK,910-768900-00000-00000-0000-0000-000-000-000-000-000-000,5,PKO-12,1993,0,51.949,3.9502624680818146,10000,9.210340371976184,35640.6857041255,12512.0155387622,3.56406857041255,1.2709027491576426,0.0059,0.0121,0.09,0.2351,0.186203,CWH,-1.7567819796155162,0,FALSE,FALSE,0.0077182273141068345,-0.4394594429797787
PKO,KUMEALON CREEK,910-768900-00000-00000-0000-0000-000-000-000-000-000-000,5,PKO-12,1995,0,51.949,3.9502624680818146,30000,10.308952660644293,22876.3386151021,35640.6857041255,0.7625446205034033,-0.2710942535197343,0.0059,0.0121,0.09,0.2351,0.186203,CWH,-0.5672147431639023,0,FALSE,FALSE,0.0077182273141068345,-0.4394594429797787
PKO,KUMEALON CREEK,910-768900-00000-00000-0000-0000-000-000-000-000-000-000,5,PKO-12,1997,454149.060585118,51.949,3.9502624680818146,20000,9.903487552536127,56552.114210234,22876.3386151021,2.8276057105117003,1.039430314873982,0.0146,0.0301,0.09,0.2351,0.186203,CWH,0.8907774948170872,0,FALSE,FALSE,0.0077182273141068345,-0.20259596705943922
PKO,KUMEALON CREEK,910-768900-00000-00000-0000-0000-000-000-000-000-000-000,5,PKO-12,1999,920015.026062272,51.949,3.9502624680818146,50000,10.819778284410283,63925.9040471669,56552.114210234,1.278518080943338,0.24570165795910515,0.0494,0.1019,0.09,0.2351,0.186203,CWH,1.6302835492491898,0,FALSE,FALSE,0.0077182273141068345,0.742226120222804
PKO,KUMEALON CREEK,910-768900-00000-00000-0000-0000-000-000-000-000-000-000,5,PKO-12,2001,86548.3771021727,51.949,3.9502624680818146,50000,10.819778284410283,56200.2477471775,63925.9040471669,1.12400495494355,0.11689815977454966,0.0545,0.1126,0.09,0.2351,0.186203,CWH,1.9190067210816288,0,FALSE,FALSE,0.0077182273141068345,0.8830282975754503
PKO,KUMEALON CREEK,910-768900-00000-00000-0000-0000-000-000-000-000-000-000,5,PKO-12,2003,72078.7339475862,51.949,3.9502624680818146,45000,10.714417768752456,103664.856554623,56200.2477471775,2.303663478991622,0.8345006727004806,0.0559,0.1154,0.09,0.2351,0.186203,CWH,0.41101277747559006,0,FALSE,FALSE,0.0077182273141068345,0.9198737271630587
PKO,KUMEALON CREEK,910-768900-00000-00000-0000-0000-000-000-000-000-000-000,5,PKO-12,2005,0,51.949,3.9502624680818146,83000,11.326595886778735,34952.9998080032,103664.856554623,0.4211204796144964,-0.8648363113836833,0.056,0.1157,0.09,0.2351,0.186203,CWH,-0.8145696192436794,0,FALSE,FALSE,0.0077182273141068345,0.9238214517617309
PKO,KUMEALON CREEK,910-768900-00000-00000-0000-0000-000-000-000-000-000-000,5,PKO-12,2007,25576.954661517,51.949,3.9502624680818146,30000,10.308952660644293,79138.2488052519,34952.9998080032,2.63794162684173,0.969998926242009,0.0565,0.1167,0.09,0.2351,0.186203,CWH,0.8768892458318005,0,FALSE,FALSE,0.0077182273141068345,0.9369805337573054
PKO,KUMEALON CREEK,910-768900-00000-00000-0000-0000-000-000-000-000-000-000,5,PKO-12,2009,0,51.949,3.9502624680818146,68000,11.127262984158243,5812.8233739892,79138.2488052519,0.08548269667631177,-2.4594413015754575,0.0569,0.1175,0.09,0.2351,0.186203,CWH,1.604652193542091,0,FALSE,FALSE,0.0077182273141068345,0.9475077993537648
PKO,KUMEALON CREEK,910-768900-00000-00000-0000-0000-000-000-000-000-000-000,5,PKO-12,2011,0,51.949,3.9502624680818146,5100,8.536995818712418,74470.6848282952,5812.8233739892,14.602095064371607,2.6811650159791998,0.0486,0.1002,0.09,0.2351,0.186203,CWH,0.7408851700104637,0,FALSE,FALSE,0.0077182273141068345,0.7198556808303274
PKO,KUMEALON CREEK,910-768900-00000-00000-0000-0000-000-000-000-000-000-000,5,PKO-12,2013,0,51.949,3.9502624680818146,61600,11.02841714952161,4561.74095075388,74470.6848282952,0.074054236213537,-2.6029575324294356,0.0481,0.0994,0.09,0.2351,0.186203,CWH,-0.5528640906240193,0,FALSE,FALSE,0.0077182273141068345,0.7093284152338679
PKO,NORTH KUMEALON CREEK,910-769900-00000-00000-0000-0000-000-000-000-000-000-000,5,PKO-14,1955,0,6.017,1.7945887962382148,3500,8.160518247477505,7382.45689051211,6243.03726317147,2.109273397289174,0.7463435267076219,0.0241,0.0258,0,0.23531,0.140174,CWH,-0.07106879047729574,0,FALSE,FALSE,-1.5029880340133845,-0.2591800196404092
PKO,NORTH KUMEALON CREEK,910-769900-00000-00000-0000-0000-000-000-000-000-000-000,5,PKO-14,1957,0,6.017,1.7945887962382148,3500,8.160518247477505,26361.1244568209,7382.45689051211,7.531749844805971,2.0191273979233926,0.0241,0.0258,0,0.23531,0.140174,CWH,-0.3276691034772351,0,FALSE,FALSE,-1.5029880340133845,-0.2591800196404092
PKO,NORTH KUMEALON CREEK,910-769900-00000-00000-0000-0000-000-000-000-000-000-000,5,PKO-14,1959,0,6.017,1.7945887962382148,15000,9.615805480084347,25113.4375228579,26361.1244568209,1.6742291681905268,0.51535286125818,0.0241,0.0258,0,0.23531,0.140174,CWH,0.7824977620566573,0,FALSE,FALSE,-1.5029880340133845,-0.2591800196404092
PKO,NORTH KUMEALON CREEK,910-769900-00000-00000-0000-0000-000-000-000-000-000-000,5,PKO-14,1961,0,6.017,1.7945887962382148,15000,9.615805480084347,9647.93010168805,25113.4375228579,0.6431953401125368,-0.4413068059935362,0.0241,0.0258,0,0.23531,0.140174,CWH,0.00583928468743269,0,FALSE,FALSE,-1.5029880340133845,-0.2591800196404092
PKO,NORTH KUMEALON CREEK,910-769900-00000-00000-0000-0000-000-000-000-000-000-000,5,PKO-14,1963,0,6.017,1.7945887962382148,7500,8.922658299524402,13541.6126281092,9647.93010168805,1.80554835041456,0.5908643408919365,0.0099,0.0106,0,0.23531,0.140174,CWH,0.5797944041154652,0,FALSE,FALSE,-1.5029880340133845,-0.45919806597314033
PKO,NORTH KUMEALON CREEK,910-769900-00000-00000-0000-0000-000-000-000-000-000-000,5,PKO-14,1965,0,6.017,1.7945887962382148,7500,8.922658299524402,1714.93499847577,13541.6126281092,0.22865799979676935,-1.475527842406051,0.0099,0.0106,0,0.23531,0.140174,CWH,-0.7093794641235007,0,FALSE,FALSE,-1.5029880340133845,-0.45919806597314033
PKO,NORTH KUMEALON CREEK,910-769900-00000-00000-0000-0000-000-000-000-000-000-000,5,PKO-14,1967,0,6.017,1.7945887962382148,750,6.620073206530356,343.376514944563,1714.93499847577,0.4578353532594173,-0.7812456502001862,0.0099,0.0106,0,0.23531,0.140174,CWH,-0.48089809283299456,0,FALSE,FALSE,-1.5029880340133845,-0.45919806597314033
PKO,NORTH KUMEALON CREEK,910-769900-00000-00000-0000-0000-000-000-000-000-000-000,5,PKO-14,1969,0,6.017,1.7945887962382148,200,5.298317366548036,2311.5418748501,343.376514944563,11.5577093742505,2.4473526925933324,0.0099,0.0106,0,0.23531,0.140174,CWH,0.09673401232408343,0,FALSE,FALSE,-1.5029880340133845,-0.45919806597314033
PKO,NORTH KUMEALON CREEK,910-769900-00000-00000-0000-0000-000-000-000-000-000-000,5,PKO-14,1971,0,6.017,1.7945887962382148,1500,7.313220387090301,577.198649040588,2311.5418748501,0.38479909936039197,-0.9550339007328466,0.0099,0.0106,0,0.23531,0.140174,CWH,-0.34080392906905344,0,FALSE,FALSE,-1.5029880340133845,-0.45919806597314033
PKO,NORTH KUMEALON CREEK,910-769900-00000-00000-0000-0000-000-000-000-000-000-000,5,PKO-14,1973,0,6.017,1.7945887962382148,400,5.991464547107982,4195.17349400784,577.198649040588,10.4879337350196,2.3502254282701576,0.0077,0.0082,0,0.23531,0.140174,CWH,-0.20355231452664888,0,FALSE,FALSE,-1.5029880340133845,-0.49077986276251895
PKO,NORTH KUMEALON CREEK,910-769900-00000-00000-0000-0000-000-000-000-000-000-000,5,PKO-14,1975,0,6.017,1.7945887962382148,3000,8.006367567650246,2740.17909536549,4195.17349400784,0.9133930317884966,-0.09058900713213983,0.0077,0.0082,0,0.23531,0.140174,CWH,1.2286162579398736,0,FALSE,FALSE,-1.5029880340133845,-0.49077986276251895
PKO,NORTH KUMEALON CREEK,910-769900-00000-00000-0000-0000-000-000-000-000-000-000,5,PKO-14,1977,0,6.017,1.7945887962382148,1200,7.090076835776092,830.872920590751,2740.17909536549,0.6923941004922926,-0.36759997609146444,0.0077,0.0082,0,0.23531,0.140174,CWH,0.9724829797884954,0,FALSE,FALSE,-1.5029880340133845,-0.49077986276251895