Species,River,WATERSHED_CDE,DFO,CU,BroodYear,hararea_m2_3005,area_km2,ln_area_km2,Spawners,logS,Recruits,Returns,recruitPerSpawner,ln_RS,ECA_age_proxy,ECA_age_proxy_forested_only,lake_cover_pct,var_eaubc_KFACTOR,var_eaubc_MELTONS_R,vri_bec_zone,npgo,portion_reporting_vri_cover1_missing,hatchery_enhancement,year_of_enhacement,ln_area_km2_std,ECA_age_proxy_forested_only_std
PKO,TYLER CREEK,915-488300-15800-00000-0000-0000-000-000-000-000-000-000,6,PKO-12,1973,0,33.843,3.521732183290893,500,6.214608098422191,2300.45238058665,948.620258490255,4.6009047611733,1.5262529713662427,0.0016,0.0024,0.02,0.29534,0.102019,CWH,-0.20355231452664888,2.6982388788428e-4,FALSE,FALSE,-0.29259781442167004,-0.5671025383368505
PKO,TYLER CREEK,915-488300-15800-00000-0000-0000-000-000-000-000-000-000,6,PKO-12,1975,0,33.843,3.521732183290893,1500,7.313220387090301,1468.39438785695,2300.45238058665,0.9789295919046334,-0.02129555741925299,0.0016,0.0024,0.02,0.29534,0.102019,CWH,1.2286162579398736,2.6982388788428e-4,FALSE,FALSE,-0.29259781442167004,-0.5671025383368505
PKO,TYLER CREEK,915-488300-15800-00000-0000-0000-000-000-000-000-000-000,6,PKO-12,1977,0,33.843,3.521732183290893,750,6.620073206530356,227.052386692193,1468.39438785695,0.3027365155895907,-1.1948924372944825,0.0016,0.0024,0.02,0.29534,0.102019,CWH,0.9724829797884954,2.6982388788428e-4,FALSE,FALSE,-0.29259781442167004,-0.5671025383368505
PKO,TYLER CREEK,915-488300-15800-00000-0000-0000-000-000-000-000-000-000,6,PKO-12,1979,0,33.843,3.521732183290893,150,5.0106352940962555,1241.64388153572,227.052386692193,8.2776258769048,2.113556197439892,0.0016,0.0024,0.02,0.29534,0.102019,CWH,-1.19975713829789,2.6982388788428e-4,FALSE,FALSE,-0.29259781442167004,-0.5671025383368505
PKO,TYLER CREEK,915-488300-15800-00000-0000-0000-000-000-000-000-000-000,6,PKO-12,1981,0,33.843,3.521732183290893,600,6.396929655216146,377.392630785129,1241.64388153572,0.6289877179752149,-0.46364354874385505,0.0016,0.0024,0.02,0.29534,0.102019,CWH,-0.22613906119882837,2.6982388788428e-4,FALSE,FALSE,-0.29259781442167004,-0.5671025383368505
PKO,TYLER CREEK,915-488300-15800-00000-0000-0000-000-000-000-000-000-000,6,PKO-12,1983,0,33.843,3.521732183290893,250,5.521460917862246,419.872896173764,377.392630785129,1.679491584695056,0.5184911194563212,3e-4,5e-4,0.02,0.29534,0.102019,CWH,0.10267616261581472,2.6982388788428e-4,FALSE,FALSE,-0.29259781442167004,-0.592104794128442
PKO,TYLER CREEK,915-488300-15800-00000-0000-0000-000-000-000-000-000-000,6,PKO-12,1985,0,33.843,3.521732183290893,260,5.560681631015528,48.9468054240196,419.872896173764,0.18825694393853692,-1.6699475261907382,3e-4,5e-4,0.02,0.29534,0.102019,CWH,-0.9758993397997916,2.6982388788428e-4,FALSE,FALSE,-0.29259781442167004,-0.592104794128442
PKO,TYLER CREEK,915-488300-15800-00000-0000-0000-000-000-000-000-000-000,6,PKO-12,1987,0,33.843,3.521732183290893,27,3.295836866004329,89.4254512410356,48.9468054240196,3.312053749667985,1.1975684651558165,3e-4,5e-4,0.02,0.29534,0.102019,CWH,0.8862048812919091,2.6982388788428e-4,FALSE,FALSE,-0.29259781442167004,-0.592104794128442
PKO,TYLER CREEK,915-488300-15800-00000-0000-0000-000-000-000-000-000-000,6,PKO-12,1989,0,33.843,3.521732183290893,75,4.31748811353631,106.382576733072,89.4254512410356,1.41843435644096,0.34955369745360587,3e-4,5e-4,0.02,0.29534,0.102019,CWH,0.15947767939610902,2.6982388788428e-4,FALSE,FALSE,-0.29259781442167004,-0.592104794128442
PKO,TYLER CREEK,915-488300-15800-00000-0000-0000-000-000-000-000-000-000,6,PKO-12,1991,0,33.843,3.521732183290893,75,4.31748811353631,31.2800388469055,106.382576733072,0.4170671846254067,-0.8745079559512275,3e-4,5e-4,0.02,0.29534,0.102019,CWH,-0.18487911555035336,2.6982388788428e-4,FALSE,FALSE,-0.29259781442167004,-0.592104794128442
PKO,TYLER CREEK,915-488300-15800-00000-0000-0000-000-000-000-000-000-000,6,PKO-12,1993,0,33.843,3.521732183290893,25,3.2188758248682006,89.1017142603137,31.2800388469055,3.564068570412548,1.2709027491576421,0,0,0.02,0.29534,0.102019,CWH,-1.7567819796155162,2.6982388788428e-4,FALSE,FALSE,-0.29259781442167004,-0.5986843351262291
PKO,TYLER CREEK,915-488300-15800-00000-0000-0000-000-000-000-000-000-000,6,PKO-12,1995,0,33.843,3.521732183290893,75,4.31748811353631,142.977116344388,89.1017142603137,1.9063615512585068,0.64519647835442,0,0,0.02,0.29534,0.102019,CWH,-0.5672147431639023,2.6982388788428e-4,FALSE,FALSE,-0.29259781442167004,-0.5986843351262291
PKO,TYLER CREEK,915-488300-15800-00000-0000-0000-000-000-000-000-000-000,6,PKO-12,1997,0,33.843,3.521732183290893,125,4.8283137373023015,339.312685261404,142.977116344388,2.714501482091232,0.9986083203537269,0,0,0.02,0.29534,0.102019,CWH,0.8907774948170872,2.6982388788428e-4,FALSE,FALSE,-0.29259781442167004,-0.5986843351262291
PKO,TYLER CREEK,915-488300-15800-00000-0000-0000-000-000-000-000-000-000,6,PKO-12,1999,0,33.843,3.521732183290893,300,5.703782474656201,2365.25844974517,339.312685261404,7.8841948324838995,2.064860101375272,0,0,0.02,0.29534,0.102019,CWH,1.6302835492491898,2.6982388788428e-4,FALSE,FALSE,-0.29259781442167004,-0.5986843351262291
PKO,TYLER CREEK,915-488300-15800-00000-0000-0000-000-000-000-000-000-000,6,PKO-12,2001,0,33.843,3.521732183290893,1850,7.52294091807237,3122.2359859543,2365.25844974517,1.6876951275428649,0.5233637682162958,0,0,0.02,0.29534,0.102019,CWH,1.9190067210816288,2.6982388788428e-4,FALSE,FALSE,-0.29259781442167004,-0.5986843351262291
PKO,TYLER CREEK,915-488300-15800-00000-0000-0000-000-000-000-000-000-000,6,PKO-12,2003,0,33.843,3.521732183290893,2500,7.824046010856292,5620.38378910605,3122.2359859543,2.24815351564242,0.8101092195763187,0,0,0.02,0.29534,0.102019,CWH,0.41101277747559006,2.6982388788428e-4,FALSE,FALSE,-0.29259781442167004,-0.5986843351262291
PKO,TYLER CREEK,915-488300-15800-00000-0000-0000-000-000-000-000-000-000,6,PKO-12,2005,0,33.843,3.521732183290893,4500,8.411832675758411,16311.3999104015,5620.38378910605,3.624755535644778,1.2877868475897443,0,0,0.02,0.29534,0.102019,CWH,-0.8145696192436794,2.6982388788428e-4,FALSE,FALSE,-0.29259781442167004,-0.5986843351262291
PKO,TYLER CREEK,915-488300-15800-00000-0000-0000-000-000-000-000-000-000,6,PKO-12,2011,0,33.843,3.521732183290893,7500,8.922658299524402,7253.63813262616,8548.26966763118,0.9671517510168213,-0.03339986614420331,0,0,0.02,0.29534,0.102019,CWH,0.7408851700104637,2.6982388788428e-4,FALSE,FALSE,-0.29259781442167004,-0.5986843351262291
PKO,TYLER CREEK,915-488300-15800-00000-0000-0000-000-000-000-000-000-000,6,PKO-12,2013,0,33.843,3.521732183290893,6000,8.699514748210191,969.369952035198,7253.63813262616,0.161561658672533,-1.8228684217356834,0,0,0.02,0.29534,0.102019,CWH,-0.5528640906240193,2.6982388788428e-4,FALSE,FALSE,-0.29259781442167004,-0.5986843351262291
PKO,PYNE CREEK,915-488300-16200-00000-0000-0000-000-000-000-000-000-000,6,PKO-12,1955,0,24.319,3.1912579378315282,25,3.2188758248682006,797.180852820808,51.0315912678342,31.88723411283232,3.4622057451448813,0,0,0.105,0.29422,0.102604,CWH,-0.07106879047729574,0,FALSE,FALSE,-0.524195722001052,-0.5986843351262291
PKO,PYNE CREEK,915-488300-16200-00000-0000-0000-000-000-000-000-000-000,6,PKO-12,1957,0,24.319,3.1912579378315282,400,5.991464547107982,1117.12968951606,797.180852820808,2.79282422379015,1.0270533504283885,0,0,0.105,0.29422,0.102604,CWH,-0.3276691034772351,0,FALSE,FALSE,-0.524195722001052,-0.5986843351262291
PKO,PYNE CREEK,915-488300-16200-00000-0000-0000-000-000-000-000-000-000,6,PKO-12,1959,0,24.319,3.1912579378315282,750,6.620073206530356,917.601300367671,1117.12968951606,1.223468400490228,0.20168977642380836,0,0,0.105,0.29422,0.102604,CWH,0.7824977620566573,0,FALSE,FALSE,-0.524195722001052,-0.5986843351262291
PKO,PYNE CREEK,915-488300-16200-00000-0000-0000-000-000-000-000-000-000,6,PKO-12,1961,0,24.319,3.1912579378315282,400,5.991464547107982,721.843007111491,917.601300367671,1.8046075177787275,0.5903431264671408,0,0,0.105,0.29422,0.102604,CWH,0.00583928468743269,0,FALSE,FALSE,-0.524195722001052,-0.5986843351262291
PKO,PYNE CREEK,915-488300-16200-00000-0000-0000-000-000-000-000-000-000,6,PKO-12,1963,0,24.319,3.1912579378315282,400,5.991464547107982,1815.21387968102,721.843007111491,4.53803469920255,1.5124940326930156,0,0,0.105,0.29422,0.102604,CWH,0.5797944041154652,0,FALSE,FALSE,-0.524195722001052,-0.5986843351262291
PKO,PYNE CREEK,915-488300-16200-00000-0000-0000-000-000-000-000-000-000,6,PKO-12,1969,0,24.319,3.1912579378315282,150,5.0106352940962555,557.541924884253,268.974214383477,3.71694616589502,1.3129024079966245,0,0,0.105,0.29422,0.102604,CWH,0.09673401232408343,0,FALSE,FALSE,-0.524195722001052,-0.5986843351262291
PKO,PYNE CREEK,915-488300-16200-00000-0000-0000-000-000-000-000-000-000,6,PKO-12,1971,0,24.319,3.1912579378315282,400,5.991464547107982,569.172155094153,557.541924884253,1.4229303877353825,0.3527183985403456,0,0,0.105,0.29422,0.102604,CWH,-0.34080392906905344,0,FALSE,FALSE,-0.524195722001052,-0.5986843351262291
PKO,PYNE CREEK,915-488300-16200-00000-0000-0000-000-000-000-000-000-000,6,PKO-12,1977,140649.560809432,24.319,3.1912579378315282,750,6.620073206530356,227.052386692193,1468.39438785695,0.3027365155895907,-1.1948924372944825,0.0058,0.008,0.105,0.29422,0.102604,CWH,0.9724829797884954,0,FALSE,FALSE,-0.524195722001052,-0.4934116791616338
PKO,PYNE CREEK,915-488300-16200-00000-0000-0000-000-000-000-000-000-000,6,PKO-12,1979,0,24.319,3.1912579378315282,150,5.0106352940962555,413.881293845239,227.052386692193,2.7592086256349266,1.01494390877178,0.0058,0.008,0.105,0.29422,0.102604,CWH,-1.19975713829789,0,FALSE,FALSE,-0.524195722001052,-0.4934116791616338
PKO,PYNE CREEK,915-488300-16200-00000-0000-0000-000-000-000-000-000-000,6,PKO-12,1981,0,24.319,3.1912579378315282,200,5.298317366548036,120.765641851241,413.881293845239,0.603828209256205,-0.5044655432641124,0.0058,0.008,0.105,0.29422,0.102604,CWH,-0.22613906119882837,0,FALSE,FALSE,-0.524195722001052,-0.4934116791616338
PKO,PYNE CREEK,915-488300-16200-00000-0000-0000-000-000-000-000-000-000,6,PKO-12,1983,0,24.319,3.1912579378315282,80,4.382026634673881,403.723938628619,120.765641851241,5.046549232857737,1.6187046894914041,0.0058,0.008,0.105,0.29422,0.102604,CWH,0.10267616261581472,0,FALSE,FALSE,-0.524195722001052,-0.4934116791616338
PKO,PYNE CREEK,915-488300-16200-00000-0000-0000-000-000-000-000-000-000,6,PKO-12,1989,0,24.319,3.1912579378315282,25,3.2188758248682006,49.6452024754335,29.8084837470119,1.98580809901734,0.6860259340748167,0.0043,0.006,0.105,0.29422,0.102604,CWH,0.15947767939610902,0,FALSE,FALSE,-0.524195722001052,-0.5197298431527827
PKO,PYNE CREEK,915-488300-16200-00000-0000-0000-000-000-000-000-000-000,6,PKO-12,1991,0,24.319,3.1912579378315282,35,3.5553480614894135,18.7680233081433,49.6452024754335,0.5362292373755229,-0.6231935276703215,0.0043,0.006,0.105,0.29422,0.102604,CWH,-0.18487911555035336,0,FALSE,FALSE,-0.524195722001052,-0.5197298431527827
PKO,PYNE CREEK,915-488300-16200-00000-0000-0000-000-000-000-000-000-000,6,PKO-12,1993,0,24.319,3.1912579378315282,15,2.70805020110221,11.8802285680418,18.7680233081433,0.7920152378694533,-0.23317464761863435,0.0043,0.006,0.105,0.29422,0.102604,CWH,-1.7567819796155162,0,FALSE,FALSE,-0.524195722001052,-0.5197298431527827
PKO,PYNE CREEK,915-488300-16200-00000-0000-0000-000-000-000-000-000-000,6,PKO-12,1995,0,24.319,3.1912579378315282,10,2.302585092994046,17.1572539613266,11.8802285680418,1.71572539613266,0.5398359626965958,0.0043,0.006,0.105,0.29422,0.102604,CWH,-0.5672147431639023,0,FALSE,FALSE,-0.524195722001052,-0.5197298431527827
PKO,PYNE CREEK,915-488300-16200-00000-0000-0000-000-000-000-000-000-000,6,PKO-12,1997,0,24.319,3.1912579378315282,15,2.70805020110221,141.380285525585,17.1572539613266,9.425352368372334,2.243403119199918,0.0043,0.006,0.105,0.29422,0.102604,CWH,0.8907774948170872,0,FALSE,FALSE,-0.524195722001052,-0.5197298431527827
PKO,PYNE CREEK,915-488300-16200-00000-0000-0000-000-000-000-000-000-000,6,PKO-12,1999,0,24.319,3.1912579378315282,125,4.8283137373023015,1662.07350522634,141.380285525585,13.29658804181072,2.5875074641064324,0.0014,0.002,0.105,0.29422,0.102604,CWH,1.6302835492491898,0,FALSE,FALSE,-0.524195722001052,-0.5723661711350803
PKO,PYNE CREEK,915-488300-16200-00000-0000-0000-000-000-000-000-000-000,6,PKO-12,2005,0,24.319,3.1912579378315282,4500,8.411832675758411,8155.69995520074,5620.38378910605,1.8123777678223867,0.5946396670297976,0.0014,0.002,0.105,0.29422,0.102604,CWH,-0.8145696192436794,0,FALSE,FALSE,-0.524195722001052,-0.5723661711350803
PKO,PYNE CREEK,915-488300-16200-00000-0000-0000-000-000-000-000-000-000,6,PKO-12,2011,0,24.319,3.1912579378315282,1800,7.495541943884256,6044.69844385513,2051.58472023148,3.358165802141739,1.2113949327019873,0.0014,0.002,0.105,0.29422,0.102604,CWH,0.7408851700104637,0,FALSE,FALSE,-0.524195722001052,-0.5723661711350803
PKO,PYNE CREEK,915-488300-16200-00000-0000-0000-000-000-000-000-000-000,6,PKO-12,2013,0,24.319,3.1912579378315282,5000,8.517193191416238,228.087047537694,6044.69844385513,0.0456174095075388,-3.0874658478780526,0.0014,0.002,0.105,0.29422,0.102604,CWH,-0.5528640906240193,0,FALSE,FALSE,-0.524195722001052,-0.5723661711350803
PKO,TRAHEY CREEK,915-488300-23300-00000-0000-0000-000-000-000-000-000-000,6,PKO-12,1955,0,9.07,2.2049722641270453,1500,7.313220387090301,797.180852820808,3061.89547607005,0.5314539018805386,-0.6321388170772194,0,0,0.025,0.29962,0.202096,CWH,-0.07106879047729574,0,FALSE,FALSE,-1.2153893670246427,-0.5986843351262291
PKO,TRAHEY CREEK,915-488300-23300-00000-0000-0000-000-000-000-000-000-000,6,PKO-12,1961,0,9.07,2.2049722641270453,75,4.31748811353631,721.843007111491,172.050243818938,9.624573428153214,2.2643195600388126,0,0,0.025,0.29962,0.202096,CWH,0.00583928468743269,0,FALSE,FALSE,-1.2153893670246427,-0.5986843351262291
PKO,TRAHEY CREEK,915-488300-23300-00000-0000-0000-000-000-000-000-000-000,6,PKO-12,1963,0,9.07,2.2049722641270453,400,5.991464547107982,1815.21387968102,721.843007111491,4.53803469920255,1.5124940326930156,0,0,0.025,0.29962,0.202096,CWH,0.5797944041154652,0,FALSE,FALSE,-1.2153893670246427,-0.5986843351262291
PKO,TRAHEY CREEK,915-488300-23300-00000-0000-0000-000-000-000-000-000-000,6,PKO-12,1971,0,9.07,2.2049722641270453,200,5.298317366548036,142.293038773538,278.770962442126,0.71146519386769,-0.3404287820196014,0,0,0.025,0.29962,0.202096,CWH,-0.34080392906905344,0,FALSE,FALSE,-1.2153893670246427,-0.5986843351262291
PKO,TRAHEY CREEK,915-488300-23300-00000-0000-0000-000-000-000-000-000-000,6,PKO-12,1973,0,9.07,2.2049722641270453,75,4.31748811353631,3834.08730097774,142.293038773538,51.121164013036534,3.934198580018112,0,0,0.025,0.29962,0.202096,CWH,-0.20355231452664888,0,FALSE,FALSE,-1.2153893670246427,-0.5986843351262291
PKO,TRAHEY CREEK,915-488300-23300-00000-0000-0000-000-000-000-000-000-000,6,PKO-12,1975,0,9.07,2.2049722641270453,2500,7.824046010856292,881.036632714171,3834.08730097774,0.3524146530856684,-1.0429468049512334,0,0,0.025,0.29962,0.202096,CWH,1.2286162579398736,0,FALSE,FALSE,-1.2153893670246427,-0.5986843351262291
PKO,TRAHEY CREEK,915-488300-23300-00000-0000-0000-000-000-000-000-000-000,6,PKO-12,1977,0,9.07,2.2049722641270453,450,6.1092475827643655,302.736515589591,881.036632714171,0.6727478124213134,-0.39638474107670973,0,0,0.025,0.29962,0.202096,CWH,0.9724829797884954,0,FALSE,FALSE,-1.2153893670246427,-0.5986843351262291
PKO,TRAHEY CREEK,915-488300-23300-00000-0000-0000-000-000-000-000-000-000,6,PKO-12,1979,0,9.07,2.2049722641270453,200,5.298317366548036,413.881293845239,302.736515589591,2.069406469226195,0.7272618363199992,0,0,0.025,0.29962,0.202096,CWH,-1.19975713829789,0,FALSE,FALSE,-1.2153893670246427,-0.5986843351262291
PKO,TRAHEY CREEK,915-488300-23300-00000-0000-0000-000-000-000-000-000-000,6,PKO-12,1981,0,9.07,2.2049722641270453,200,5.298317366548036,483.062567404966,413.881293845239,2.41531283702483,0.8818288178557824,0,0,0.025,0.29962,0.202096,CWH,-0.22613906119882837,0,FALSE,FALSE,-1.2153893670246427,-0.5986843351262291
PKO,TRAHEY CREEK,915-488300-23300-00000-0000-0000-000-000-000-000-000-000,6,PKO-12,1983,0,9.07,2.2049722641270453,320,5.768320995793772,1614.89575451448,483.062567404966,5.04654923285775,1.6187046894914066,0,0,0.025,0.29962,0.202096,CWH,0.10267616261581472,0,FALSE,FALSE,-1.2153893670246427,-0.5986843351262291
PKO,TRAHEY CREEK,915-488300-23300-00000-0000-0000-000-000-000-000-000-000,6,PKO-12,1985,0,9.07,2.2049722641270453,1000,6.907755278982137,317.24781293346,1614.89575451448,0.31724781293346,-1.1480720662381638,0,0,0.025,0.29962,0.202096,CWH,-0.9758993397997916,0,FALSE,FALSE,-1.2153893670246427,-0.5986843351262291
PKO,TRAHEY CREEK,915-488300-23300-00000-0000-0000-000-000-000-000-000-000,6,PKO-12,1987,0,9.07,2.2049722641270453,175,5.1647859739235145,238.467869976095,317.24781293346,1.3626735427205428,0.309448610248358,0,0,0.025,0.29962,0.202096,CWH,0.8862048812919091,0,FALSE,FALSE,-1.2153893670246427,-0.5986843351262291
PKO,TRAHEY CREEK,915-488300-23300-00000-0000-0000-000-000-000-000-000-000,6,PKO-12,1989,0,9.07,2.2049722641270453,200,5.298317366548036,283.686871288191,238.467869976095,1.4184343564409552,0.34955369745360243,0,0,0.025,0.29962,0.202096,CWH,0.15947767939610902,0,FALSE,FALSE,-1.2153893670246427,-0.5986843351262291
PKO,TRAHEY CREEK,915-488300-23300-00000-0000-0000-000-000-000-000-000-000,6,PKO-12,1991,0,9.07,2.2049722641270453,200,5.298317366548036,31.2800388469055,283.686871288191,0.1564001942345275,-1.8553372089629538,0,0,0.025,0.29962,0.202096,CWH,-0.18487911555035336,0,FALSE,FALSE,-1.2153893670246427,-0.5986843351262291
PKO,TRAHEY CREEK,915-488300-23300-00000-0000-0000-000-000-000-000-000-000,6,PKO-12,1993,0,9.07,2.2049722641270453,25,3.2188758248682006,41.5807999881464,31.2800388469055,1.6632319995258562,0.5087626971107456,0,0,0.025,0.29962,0.202096,CWH,-1.7567819796155162,0,FALSE,FALSE,-1.2153893670246427,-0.5986843351262291
PKO,TRAHEY CREEK,915-488300-23300-00000-0000-0000-000-000-000-000-000-000,6,PKO-12,1995,0,9.07,2.2049722641270453,35,3.5553480614894135,11.438169307551,41.5807999881464,0.3268048373586,-1.1183921139069424,0,0,0.025,0.29962,0.202096,CWH,-0.5672147431639023,0,FALSE,FALSE,-1.2153893670246427,-0.5986843351262291
PKO,WALE CREEK,915-488300-43300-00000-0000-0000-000-000-000-000-000-000,6,PKO-12,1955,0,34.73,3.5476038667559826,1500,7.313220387090301,797.180852820808,3061.89547607005,0.5314539018805386,-0.6321388170772194,0.0054,0.0077,0.131,-0.12276,0.133694,CWH,-0.07106879047729574,0,FALSE,FALSE,-0.27446681680719015,-0.49735940376030613
PKO,WALE CREEK,915-488300-43300-00000-0000-0000-000-000-000-000-000-000,6,PKO-12,1957,0,34.73,3.5476038667559826,400,5.991464547107982,37.2376563172019,797.180852820808,0.09309414079300476,-2.3741440312337696,0.0054,0.0077,0.131,-0.12276,0.133694,CWH,-0.3276691034772351,0,FALSE,FALSE,-0.27446681680719015,-0.49735940376030613
PKO,WALE CREEK,915-488300-43300-00000-0000-0000-000-000-000-000-000-000,6,PKO-12,1971,0,34.73,3.5476038667559826,400,5.991464547107982,5691.72155094153,557.541924884253,14.229303877353825,2.6553034915343914,0.0097,0.0138,0.131,-0.12276,0.133694,CWH,-0.34080392906905344,0,FALSE,FALSE,-0.27446681680719015,-0.4170890035873022
PKO,WALE CREEK,915-488300-43300-00000-0000-0000-000-000-000-000-000-000,6,PKO-12,1973,0,34.73,3.5476038667559826,3000,8.006367567650246,766.817460195548,5691.72155094153,0.2556058200651827,-1.3641187865299247,0.0065,0.0092,0.131,-0.12276,0.133694,CWH,-0.20355231452664888,0,FALSE,FALSE,-0.27446681680719015,-0.47762078076694453
PKO,WALE CREEK,915-488300-43300-00000-0000-0000-000-000-000-000-000-000,6,PKO-12,1975,0,34.73,3.5476038667559826,500,6.214608098422191,1468.39438785695,766.817460195548,2.9367887757139,1.0773167312488567,0.0065,0.0092,0.131,-0.12276,0.133694,CWH,1.2286162579398736,0,FALSE,FALSE,-0.27446681680719015,-0.47762078076694453