Species,River,WATERSHED_CDE,DFO,CU,BroodYear,hararea_m2_3005,area_km2,ln_area_km2,Spawners,logS,Recruits,Returns,recruitPerSpawner,ln_RS,ECA_age_proxy,ECA_age_proxy_forested_only,lake_cover_pct,var_eaubc_KFACTOR,var_eaubc_MELTONS_R,vri_bec_zone,npgo,portion_reporting_vri_cover1_missing,hatchery_enhancement,year_of_enhacement,ln_area_km2_std,ECA_age_proxy_forested_only_std
PKO,SALMON RIVER,920-725300-00000-00000-0000-0000-000-000-000-000-000-000,13,PKO-4,1973,8969387.99570761,1323.92,7.188352311710688,7500,8.922658299524402,35714.28571428572,13636.363636363636,4.761904761904763,1.5606477482646686,0.1325,0.1487,0.013,0.15536,0.179637,CWH,-0.20355231452664888,0.0506288498515543,FALSE,FALSE,2.276986839444751,1.3580711576156868
PKO,SALMON RIVER,920-725300-00000-00000-0000-0000-000-000-000-000-000-000,13,PKO-4,1975,9135304.87752997,1323.92,7.188352311710688,25000,10.126631103850338,3658.536585365853,35714.28571428572,0.14634146341463414,-1.9218125974762528,0.1422,0.1597,0.013,0.15536,0.179637,CWH,1.2286162579398736,0.0506288498515543,FALSE,FALSE,2.276986839444751,1.5028210595670053
PKO,SALMON RIVER,920-725300-00000-00000-0000-0000-000-000-000-000-000-000,13,PKO-4,1977,20586513.5089791,1323.92,7.188352311710688,1500,7.313220387090301,2790.6976744186045,3658.536585365853,1.8604651162790697,0.6208265189803192,0.1575,0.1768,0.013,0.15536,0.179637,CWH,0.9724829797884954,0.0506288498515543,FALSE,FALSE,2.276986839444751,1.727841361691328
PKO,SALMON RIVER,920-725300-00000-00000-0000-0000-000-000-000-000-000-000,13,PKO-4,1979,10661609.1222478,1323.92,7.188352311710688,1200,7.090076835776092,10344.827586206897,2790.6976744186045,8.620689655172415,2.1541650878757723,0.1568,0.1761,0.013,0.15536,0.179637,CWH,-1.19975713829789,0.0506288498515543,FALSE,FALSE,2.276986839444751,1.7186300042944258
PKO,SALMON RIVER,920-725300-00000-00000-0000-0000-000-000-000-000-000-000,13,PKO-4,1981,8764376.70108012,1323.92,7.188352311710688,6000,8.699514748210191,17543.859649122805,10344.827586206897,2.923976608187134,1.0729445419195318,0.1662,0.1866,0.013,0.15536,0.179637,CWH,-0.22613906119882837,0.0506288498515543,FALSE,FALSE,2.276986839444751,1.856800365247957
PKO,SALMON RIVER,920-725300-00000-00000-0000-0000-000-000-000-000-000-000,13,PKO-4,1983,13823975.628384,1323.92,7.188352311710688,10000,9.210340371976184,3000,17543.859649122805,0.3,-1.2039728043259361,0.1761,0.1977,0.013,0.15536,0.179637,CWH,0.10267616261581472,0.0506288498515543,FALSE,FALSE,2.276986839444751,2.002866175398833
PKO,SALMON RIVER,920-725300-00000-00000-0000-0000-000-000-000-000-000-000,13,PKO-4,1985,9431852.15569352,1323.92,7.188352311710688,1500,7.313220387090301,35714.28571428571,3000,23.809523809523807,3.1700856606987684,0.1837,0.2062,0.013,0.15536,0.179637,CWH,-0.9758993397997916,0.0506288498515543,FALSE,FALSE,2.276986839444751,2.1147183723612155
PKO,SALMON RIVER,920-725300-00000-00000-0000-0000-000-000-000-000-000-000,13,PKO-4,1987,21064548.6928206,1323.92,7.188352311710688,20000,9.903487552536127,162068.96551724136,35714.28571428571,8.103448275862068,2.092289684157685,0.1975,0.2217,0.013,0.15536,0.179637,CWH,0.8862048812919091,0.0506288498515543,FALSE,FALSE,2.276986839444751,2.3186841432926193
PKO,SALMON RIVER,920-725300-00000-00000-0000-0000-000-000-000-000-000-000,13,PKO-4,1989,12153939.0545435,1323.92,7.188352311710688,47000,10.757902880692196,10204.081632653062,162068.96551724136,0.21710811984368217,-1.5273598013984935,0.1998,0.2243,0.013,0.15536,0.179637,CWH,0.15947767939610902,0.0506288498515543,FALSE,FALSE,2.276986839444751,2.3528977564811124
PKO,SALMON RIVER,920-725300-00000-00000-0000-0000-000-000-000-000-000-000,13,PKO-4,1991,9066970.47127467,1323.92,7.188352311710688,5000,8.517193191416238,94339.62264150944,10204.081632653062,18.867924528301888,2.9374633654300153,0.2026,0.2275,0.013,0.15536,0.179637,CWH,-0.18487911555035336,0.0506288498515543,FALSE,FALSE,2.276986839444751,2.3950068188669507
PKO,SALMON RIVER,920-725300-00000-00000-0000-0000-000-000-000-000-000-000,13,PKO-4,1993,7753555.4071921,1323.92,7.188352311710688,50000,10.819778284410283,8823.529411764706,94339.62264150944,0.17647058823529413,-1.7346010553881064,0.2058,0.231,0.013,0.15536,0.179637,CWH,-1.7567819796155162,0.0506288498515543,FALSE,FALSE,2.276986839444751,2.441063605851461
PKO,SALMON RIVER,920-725300-00000-00000-0000-0000-000-000-000-000-000-000,13,PKO-4,1995,9072206.88716831,1323.92,7.188352311710688,4500,8.411832675758411,819.672131147541,8823.529411764706,0.18214936247723132,-1.7029282555214393,0.2063,0.2317,0.013,0.15536,0.179637,CWH,-0.5672147431639023,0.0506288498515543,FALSE,FALSE,2.276986839444751,2.450274963248363
PKO,SALMON RIVER,920-725300-00000-00000-0000-0000-000-000-000-000-000-000,13,PKO-4,1997,5713715.23150186,1323.92,7.188352311710688,500,6.214608098422191,2551.0204081632655,819.672131147541,5.102040816326531,1.62964061975162,0.2022,0.227,0.013,0.15536,0.179637,CWH,0.8907774948170872,0.0506288498515543,FALSE,FALSE,2.276986839444751,2.3884272778691638
PKO,SALMON RIVER,920-725300-00000-00000-0000-0000-000-000-000-000-000-000,13,PKO-4,1999,7634434.67460923,1323.92,7.188352311710688,2500,7.824046010856292,9782.608695652174,2551.0204081632655,3.9130434782608696,1.3643154544011153,0.1858,0.2086,0.013,0.15536,0.179637,CWH,1.6302835492491898,0.0506288498515543,FALSE,FALSE,2.276986839444751,2.1463001691505945
PKO,SALMON RIVER,920-725300-00000-00000-0000-0000-000-000-000-000-000-000,13,PKO-4,2001,6272477.34092191,1323.92,7.188352311710688,9000,9.104979856318357,3449.3670886075947,9782.608695652174,0.3832630098452883,-0.9590338156999421,0.1806,0.2027,0.013,0.15536,0.179637,CWH,1.9190067210816288,0.0506288498515543,FALSE,FALSE,2.276986839444751,2.068661585376705
PKO,SALMON RIVER,920-725300-00000-00000-0000-0000-000-000-000-000-000-000,13,PKO-4,2003,9189099.56946299,1323.92,7.188352311710688,2725,7.9102237070973445,18298.936170212768,3449.3670886075947,6.715205934023034,1.904374497267134,0.1759,0.1974,0.013,0.15536,0.179637,CWH,0.41101277747559006,0.0506288498515543,FALSE,FALSE,2.276986839444751,1.9989184508001607
PKO,SALMON RIVER,920-725300-00000-00000-0000-0000-000-000-000-000-000-000,13,PKO-4,2005,14749920.945392,1323.92,7.188352311710688,17201,9.75272280064639,35312.5,18298.936170212768,2.0529329690134293,0.7192694872424058,0.1851,0.2078,0.013,0.15536,0.179637,CWH,-0.8145696192436794,0.0506288498515543,FALSE,FALSE,2.276986839444751,2.135772903554135
PKO,SALMON RIVER,920-725300-00000-00000-0000-0000-000-000-000-000-000-000,13,PKO-4,2007,8533936.73755869,1323.92,7.188352311710688,33900,10.431170293368542,90959.78260869563,35312.5,2.683179427985122,0.9870024450870529,0.1897,0.213,0.013,0.15536,0.179637,CWH,0.8768892458318005,0.0506288498515543,FALSE,FALSE,2.276986839444751,2.2042001299311216
PKO,SALMON RIVER,920-725300-00000-00000-0000-0000-000-000-000-000-000-000,13,PKO-4,2009,3894791.9384039,1323.92,7.188352311710688,83683,11.334791129516544,9595.384615384615,90959.78260869563,0.11466348739152056,-2.165753636897967,0.1752,0.1967,0.013,0.15536,0.179637,CWH,1.604652193542091,0.0506288498515543,FALSE,FALSE,2.276986839444751,1.9897070934032588
PKO,SALMON RIVER,920-725300-00000-00000-0000-0000-000-000-000-000-000-000,13,PKO-4,2011,12739457.90431,1323.92,7.188352311710688,6237,8.738254576526122,49800,9595.384615384615,7.984607984607985,2.0775156864866218,0.1766,0.1982,0.013,0.15536,0.179637,CWH,0.7408851700104637,0.0506288498515543,FALSE,FALSE,2.276986839444751,2.00944571639662
PKO,SLIAMMON CREEK,900-286000-00000-00000-0000-0000-000-000-000-000-000-000,15,PKO-3,1959,0,58.342,4.066322245648334,50,3.912023005428146,62.5,119.04761904761904,1.25,0.22314355131420976,0.1005,0.1062,0.043,0.14143,0.155168,CWH,0.7824977620566573,0.0131733479273635,TRUE,FALSE,0.08905346601378782,0.798810172803774
PKO,SLIAMMON CREEK,900-286000-00000-00000-0000-0000-000-000-000-000-000-000,15,PKO-3,1961,917949.497594999,58.342,4.066322245648334,25,3.2188758248682006,153.06122448979593,62.5,6.122448979591837,1.8119621765455745,0.1171,0.1236,0.043,0.14143,0.155168,CWH,0.00583928468743269,0.0131733479273635,TRUE,FALSE,0.08905346601378782,1.0277781995267687
PKO,SLIAMMON CREEK,900-286000-00000-00000-0000-0000-000-000-000-000-000-000,15,PKO-3,1997,36914.9389191477,58.342,4.066322245648334,72,4.276666119016055,360.8247422680412,163.63636363636363,5.011454753722794,1.6117262429521124,0.1132,0.1196,0.043,0.14143,0.155168,CWH,0.8907774948170872,0.0131733479273635,TRUE,FALSE,0.08905346601378782,0.975141871544471
PKO,SLIAMMON CREEK,900-286000-00000-00000-0000-0000-000-000-000-000-000-000,15,PKO-3,1999,24.5866358020405,58.342,4.066322245648334,350,5.857933154483459,697.6744186046511,360.8247422680412,1.9933554817275747,0.6898193904672706,0.1278,0.135,0.043,0.14143,0.155168,CWH,1.6302835492491898,0.0131733479273635,TRUE,FALSE,0.08905346601378782,1.1777917342763173
PKO,SLIAMMON CREEK,900-286000-00000-00000-0000-0000-000-000-000-000-000-000,15,PKO-3,2001,121036.40473363201,58.342,4.066322245648334,600,6.396929655216146,1866.6666666666667,697.6744186046511,3.111111111111111,1.1349799328389845,0.1294,0.1367,0.043,0.14143,0.155168,CWH,1.9190067210816288,0.0131733479273635,TRUE,FALSE,0.08905346601378782,1.2001621736687935
PKO,SLIAMMON CREEK,900-286000-00000-00000-0000-0000-000-000-000-000-000-000,15,PKO-3,2003,5700.51861111531,58.342,4.066322245648334,1400,7.24422751560335,1682.6086956521738,1866.6666666666667,1.201863354037267,0.1838731474853734,0.1246,0.1316,0.043,0.14143,0.155168,CWH,0.41101277747559006,0.0131733479273635,TRUE,FALSE,0.08905346601378782,1.133050855491364
PKO,SLIAMMON CREEK,900-286000-00000-00000-0000-0000-000-000-000-000-000-000,15,PKO-3,2005,1114.78775250901,58.342,4.066322245648334,1548,7.344719054149673,742.2222222222222,1682.6086956521738,0.47947171978179726,-0.7350703649552005,0.1164,0.1229,0.043,0.14143,0.155168,CWH,-0.8145696192436794,0.0131733479273635,TRUE,FALSE,0.08905346601378782,1.0185668421298666
PKO,SLIAMMON CREEK,900-286000-00000-00000-0000-0000-000-000-000-000-000-000,15,PKO-3,2007,0,58.342,4.066322245648334,668,6.504288173536645,3855.421686746988,742.2222222222222,5.771589351417647,1.7529474934426656,0.1042,0.11,0.043,0.14143,0.155168,CWH,0.8768892458318005,0.0131733479273635,TRUE,FALSE,0.08905346601378782,0.8488146843869566
PKO,SLIAMMON CREEK,900-286000-00000-00000-0000-0000-000-000-000-000-000-000,15,PKO-3,2009,0.571464282188515,58.342,4.066322245648334,3200,8.070906088787819,1513.4615384615383,3855.421686746988,0.4729567307692307,-0.7487513729637507,0.0905,0.0956,0.043,0.14143,0.155168,CWH,1.604652193542091,0.0131733479273635,TRUE,FALSE,0.08905346601378782,0.6593239036506852
PKO,SLIAMMON CREEK,900-286000-00000-00000-0000-0000-000-000-000-000-000-000,15,PKO-3,2011,299704.413485037,58.342,4.066322245648334,787,6.668228248417403,3089.8734177215188,1513.4615384615383,3.92614157270841,1.3676571554966266,0.0969,0.1024,0.043,0.14143,0.155168,CWH,0.7408851700104637,0.0131733479273635,TRUE,FALSE,0.08905346601378782,0.7488056612205912
PKO,STAFFORD RIVER,900-471200-00000-00000-0000-0000-000-000-000-000-000-000,13,PKO-7,1959,334525.257003458,382.531,5.946809695734195,3500,8.160518247477505,8750,8333.333333333332,2.5,0.9162907318741551,0.0271,0.0533,0.018,0.13986,0.193593,CWH,0.7824977620566573,0.00470942959418137,FALSE,FALSE,1.406907927149773,0.10269473523788726
PKO,STAFFORD RIVER,900-471200-00000-00000-0000-0000-000-000-000-000-000-000,13,PKO-7,1961,0,382.531,5.946809695734195,3500,8.160518247477505,15306.122448979591,8750,4.373177842565598,1.4754899399243615,0.0271,0.0533,0.018,0.13986,0.193593,CWH,0.00583928468743269,0.00470942959418137,FALSE,FALSE,1.406907927149773,0.10269473523788726
PKO,STAFFORD RIVER,900-471200-00000-00000-0000-0000-000-000-000-000-000-000,13,PKO-7,1963,0,382.531,5.946809695734195,7500,8.922658299524402,9677.41935483871,15306.122448979591,1.2903225806451613,0.25489224962879004,0.0459,0.0903,0.018,0.13986,0.193593,CWH,0.5797944041154652,0.00470942959418137,FALSE,FALSE,1.406907927149773,0.5895807690741407
PKO,STAFFORD RIVER,900-471200-00000-00000-0000-0000-000-000-000-000-000-000,13,PKO-7,1965,0,382.531,5.946809695734195,6000,8.699514748210191,10294.117647058823,9677.41935483871,1.7156862745098038,0.5398131606392429,0.0459,0.0903,0.018,0.13986,0.193593,CWH,-0.7093794641235007,0.00470942959418137,FALSE,FALSE,1.406907927149773,0.5895807690741407
PKO,STAFFORD RIVER,900-471200-00000-00000-0000-0000-000-000-000-000-000-000,13,PKO-7,1967,2188417.55566302,382.531,5.946809695734195,3500,8.160518247477505,2238.805970149254,10294.117647058823,0.6396588486140725,-0.44682029379007826,0.0517,0.1018,0.018,0.13986,0.193593,CWH,-0.48089809283299456,0.00470942959418137,FALSE,FALSE,1.406907927149773,0.7409102120232465
PKO,STAFFORD RIVER,900-471200-00000-00000-0000-0000-000-000-000-000-000-000,13,PKO-7,1969,0,382.531,5.946809695734195,1500,7.313220387090301,5737.704918032787,2238.805970149254,3.8251366120218577,1.3415941822019837,0.0509,0.1001,0.018,0.13986,0.193593,CWH,0.09673401232408343,0.00470942959418137,FALSE,FALSE,1.406907927149773,0.7185397726307698
PKO,STAFFORD RIVER,900-471200-00000-00000-0000-0000-000-000-000-000-000-000,13,PKO-7,1971,86784.5394663398,382.531,5.946809695734195,3500,8.160518247477505,13636.363636363636,5737.704918032787,3.896103896103896,1.3599770528025172,0.0509,0.1001,0.018,0.13986,0.193593,CWH,-0.34080392906905344,0.00470942959418137,FALSE,FALSE,1.406907927149773,0.7185397726307698
PKO,STAFFORD RIVER,900-471200-00000-00000-0000-0000-000-000-000-000-000-000,13,PKO-7,1973,0,382.531,5.946809695734195,7500,8.922658299524402,6428.571428571429,13636.363636363636,0.8571428571428572,-0.15415067982725822,0.0585,0.1151,0.018,0.13986,0.193593,CWH,-0.20355231452664888,0.00470942959418137,FALSE,FALSE,1.406907927149773,0.915926002564386
PKO,STAFFORD RIVER,900-471200-00000-00000-0000-0000-000-000-000-000-000-000,13,PKO-7,1975,0,382.531,5.946809695734195,4500,8.411832675758411,975.6097560975608,6428.571428571429,0.21680216802168017,-1.5287700093666459,0.0593,0.1167,0.018,0.13986,0.193593,CWH,1.2286162579398736,0.00470942959418137,FALSE,FALSE,1.406907927149773,0.9369805337573054
PKO,STAFFORD RIVER,900-471200-00000-00000-0000-0000-000-000-000-000-000-000,13,PKO-7,1977,776516.653346364,382.531,5.946809695734195,400,5.991464547107982,581.3953488372092,975.6097560975608,1.453488372093023,0.3739664410487932,0.0636,0.1252,0.018,0.13986,0.193593,CWH,0.9724829797884954,0.00470942959418137,FALSE,FALSE,1.406907927149773,1.048832730719688
PKO,STAFFORD RIVER,900-471200-00000-00000-0000-0000-000-000-000-000-000-000,13,PKO-7,1983,0,382.531,5.946809695734195,20000,9.903487552536127,1200,35087.71929824561,0.06,-2.8134107167600364,0.0474,0.0933,0.018,0.13986,0.193593,CWH,0.10267616261581472,0.00470942959418137,FALSE,FALSE,1.406907927149773,0.6290580150608639
PKO,STAFFORD RIVER,900-471200-00000-00000-0000-0000-000-000-000-000-000-000,13,PKO-7,1991,0,382.531,5.946809695734195,2500,7.824046010856292,3703.703703703703,4807.692307692308,1.4814814814814812,0.393042588109607,0.0432,0.0849,0.018,0.13986,0.193593,CWH,-0.18487911555035336,0.00470942959418137,FALSE,FALSE,1.406907927149773,0.5185217262980388
PKO,TSABLE RIVER,920-527600-00000-00000-0000-0000-000-000-000-000-000-000,14,PKO-3,1959,346870.266660541,106.52,4.668332760945732,25,3.2188758248682006,62.5,59.52380952380952,2.5,0.9162907318741551,0.0764,0.0848,0.017,-2.96184,0.221601,CWH,0.7824977620566573,0,FALSE,FALSE,0.5109452702899742,0.5172058180984814
PKO,TSABLE RIVER,920-527600-00000-00000-0000-0000-000-000-000-000-000-000,14,PKO-3,1961,0,106.52,4.668332760945732,25,3.2188758248682006,51.02040816326531,62.5,2.0408163265306123,0.7133498878774648,0.076,0.0844,0.017,-2.96184,0.221601,CWH,0.00583928468743269,0,FALSE,FALSE,0.5109452702899742,0.5119421853002517
PKO,TSABLE RIVER,920-527600-00000-00000-0000-0000-000-000-000-000-000-000,14,PKO-3,1967,0,106.52,4.668332760945732,200,5.298317366548036,74.6268656716418,588.2352941176471,0.373134328358209,-0.9858167945227653,0.0597,0.0663,0.017,-2.96184,0.221601,CWH,-0.48089809283299456,0,FALSE,FALSE,0.5109452702899742,0.2737628011803547
PKO,TSABLE RIVER,920-527600-00000-00000-0000-0000-000-000-000-000-000-000,14,PKO-3,1969,0,106.52,4.668332760945732,50,3.912023005428146,163.9344262295082,74.6268656716418,3.278688524590164,1.1874435023747254,0.0597,0.0663,0.017,-2.96184,0.221601,CWH,0.09673401232408343,0,FALSE,FALSE,0.5109452702899742,0.2737628011803547
PKO,TSABLE RIVER,920-527600-00000-00000-0000-0000-000-000-000-000-000-000,14,PKO-3,1971,0,106.52,4.668332760945732,100,4.605170185988092,45.45454545454545,163.9344262295082,0.45454545454545453,-0.7884573603642702,0.0585,0.065,0.017,-2.96184,0.221601,CWH,-0.34080392906905344,0,FALSE,FALSE,0.5109452702899742,0.256655994586108
PKO,TSABLE RIVER,920-527600-00000-00000-0000-0000-000-000-000-000-000-000,14,PKO-3,1973,0,106.52,4.668332760945732,25,3.2188758248682006,14.285714285714286,45.45454545454545,0.5714285714285715,-0.5596157879354225,0.1568,0.1741,0.017,-2.96184,0.221601,CWH,-0.20355231452664888,0,FALSE,FALSE,0.5109452702899742,1.6923118403032769
PKO,TSABLE RIVER,920-527600-00000-00000-0000-0000-000-000-000-000-000-000,14,PKO-3,1975,0,106.52,4.668332760945732,10,2.302585092994046,60.975609756097555,14.285714285714286,6.097560975609755,1.8078888511579385,0.1568,0.1741,0.017,-2.96184,0.221601,CWH,1.2286162579398736,0,FALSE,FALSE,0.5109452702899742,1.6923118403032769
PKO,TSABLE RIVER,920-527600-00000-00000-0000-0000-000-000-000-000-000-000,14,PKO-3,1977,0,106.52,4.668332760945732,25,3.2188758248682006,465.1162790697674,60.975609756097555,18.604651162790695,2.9234116119743647,0.1568,0.1741,0.017,-2.96184,0.221601,CWH,0.9724829797884954,0,FALSE,FALSE,0.5109452702899742,1.6923118403032769
PKO,TSABLE RIVER,920-527600-00000-00000-0000-0000-000-000-000-000-000-000,14,PKO-3,1979,1813.12139571644,106.52,4.668332760945732,200,5.298317366548036,379.31034482758616,465.1162790697674,1.8965517241379308,0.6400373552459968,0.1568,0.1741,0.017,-2.96184,0.221601,CWH,-1.19975713829789,0,FALSE,FALSE,0.5109452702899742,1.6923118403032769
PKO,TSABLE RIVER,920-527600-00000-00000-0000-0000-000-000-000-000-000-000,14,PKO-3,1981,0,106.52,4.668332760945732,220,5.393627546352362,149.12280701754383,379.31034482758616,0.6778309409888356,-0.3888573717085041,0.1551,0.1722,0.017,-2.96184,0.221601,CWH,-0.22613906119882837,0,FALSE,FALSE,0.5109452702899742,1.6673095845116854
PKO,TSABLE RIVER,920-527600-00000-00000-0000-0000-000-000-000-000-000-000,14,PKO-3,1983,0,106.52,4.668332760945732,85,4.442651256490317,100,149.12280701754383,1.1764705882352942,0.16251892949777494,0.1199,0.1332,0.017,-2.96184,0.221601,CWH,0.10267616261581472,0,FALSE,FALSE,0.5109452702899742,1.1541053866842834
PKO,TSABLE RIVER,920-527600-00000-00000-0000-0000-000-000-000-000-000-000,14,PKO-3,1985,0,106.52,4.668332760945732,50,3.912023005428146,6642.857142857142,100,132.85714285714283,4.889274437091988,0.1197,0.1329,0.017,-2.96184,0.221601,CWH,-0.9758993397997916,0,FALSE,FALSE,0.5109452702899742,1.1501576620856109
PKO,TSABLE RIVER,920-527600-00000-00000-0000-0000-000-000-000-000-000-000,14,PKO-3,1987,0,106.52,4.668332760945732,3720,8.221478947267192,13157.894736842109,6642.857142857142,3.537068477645728,1.263298270410751,0.1197,0.1329,0.017,-2.96184,0.221601,CWH,0.8862048812919091,0,FALSE,FALSE,0.5109452702899742,1.1501576620856109
PKO,TSABLE RIVER,920-527600-00000-00000-0000-0000-000-000-000-000-000-000,14,PKO-3,1989,0,106.52,4.668332760945732,2500,7.824046010856292,13513.513513513511,13157.894736842109,5.405405405405404,1.687399453903812,0.1197,0.1329,0.017,-2.96184,0.221601,CWH,0.15947767939610902,0,FALSE,FALSE,0.5109452702899742,1.1501576620856109
PKO,TSABLE RIVER,920-527600-00000-00000-0000-0000-000-000-000-000-000-000,14,PKO-3,1991,0,106.52,4.668332760945732,5000,8.517193191416238,2272.727272727273,13513.513513513511,0.4545454545454546,-0.78845736036427,0.1195,0.1327,0.017,-2.96184,0.221601,CWH,-0.18487911555035336,0,FALSE,FALSE,0.5109452702899742,1.1475258456864963