Species,River,WATERSHED_CDE,DFO,CU,BroodYear,hararea_m2_3005,area_km2,ln_area_km2,Spawners,logS,Recruits,Returns,recruitPerSpawner,ln_RS,ECA_age_proxy,ECA_age_proxy_forested_only,lake_cover_pct,var_eaubc_KFACTOR,var_eaubc_MELTONS_R,vri_bec_zone,npgo,portion_reporting_vri_cover1_missing,hatchery_enhancement,year_of_enhacement,ln_area_km2_std,ECA_age_proxy_forested_only_std
PKO,KHUTZE RIVER,910-545100-00000-00000-0000-0000-000-000-000-000-000-000,6,PKO-13,1999,0,273.961,5.61298576049095,30000,10.308952660644293,143293.780060399,32802.4244175667,4.776459335346633,1.5636995472083057,9e-4,0.0024,0.012,0.10716,0.206696,CWH,1.6302835492491898,0,FALSE,FALSE,1.1729625411945552,-0.5671025383368505
PKO,KHUTZE RIVER,910-545100-00000-00000-0000-0000-000-000-000-000-000-000,6,PKO-13,2001,0,273.961,5.61298576049095,105000,11.56171562913966,73773.6772780993,143293.780060399,0.7026064502676125,-0.3529583586237891,9e-4,0.0024,0.012,0.10716,0.206696,CWH,1.9190067210816288,0,FALSE,FALSE,1.1729625411945552,-0.5671025383368505
PKO,KHUTZE RIVER,910-545100-00000-00000-0000-0000-000-000-000-000-000-000,6,PKO-13,2003,0,273.961,5.61298576049095,50000,10.819778284410283,74608.7979819681,73773.6772780993,1.4921759596393622,0.4002354302428569,9e-4,0.0024,0.012,0.10716,0.206696,CWH,0.41101277747559006,0,FALSE,FALSE,1.1729625411945552,-0.5671025383368505
PKO,KHUTZE RIVER,910-545100-00000-00000-0000-0000-000-000-000-000-000-000,6,PKO-13,2005,0,273.961,5.61298576049095,50000,10.819778284410283,93391.0620761437,74608.7979819681,1.867821241522874,0.6247726401113467,9e-4,0.0024,0.012,0.10716,0.206696,CWH,-0.8145696192436794,0,FALSE,FALSE,1.1729625411945552,-0.5671025383368505
PKO,KHUTZE RIVER,910-545100-00000-00000-0000-0000-000-000-000-000-000-000,6,PKO-13,2007,0,273.961,5.61298576049095,75000,11.225243392518447,83842.9996645687,93391.0620761437,1.1179066621942495,0.11145788483828621,4e-4,0.001,0.012,0.10716,0.206696,CWH,0.8768892458318005,0,FALSE,FALSE,1.1729625411945552,-0.5855252531306547
PKO,KHUTZE RIVER,910-545100-00000-00000-0000-0000-000-000-000-000-000-000,6,PKO-13,2009,0,273.961,5.61298576049095,65000,11.082142548877775,41559.6876767148,83842.9996645687,0.6393798104109969,-0.447256618690086,4e-4,0.001,0.012,0.10716,0.206696,CWH,1.604652193542091,0,FALSE,FALSE,1.1729625411945552,-0.5855252531306547
PKO,KHUTZE RIVER,910-545100-00000-00000-0000-0000-000-000-000-000-000-000,6,PKO-13,2011,0,273.961,5.61298576049095,35000,10.46310334047155,64731.4989340187,41559.6876767148,1.84947139811482,0.6148998675126797,4e-4,0.001,0.012,0.10716,0.206696,CWH,0.7408851700104637,0,FALSE,FALSE,1.1729625411945552,-0.5855252531306547
PKO,HEAD CREEK,910-550500-00000-00000-0000-0000-000-000-000-000-000-000,6,PKO-13,1955,0,21.321,3.059692502512868,7500,8.922658299524402,1328.86563274022,14351.5992521883,0.17718208436536267,-1.7305773499554558,0.0169,0.0412,0.06,-0.64761,0.288537,CWH,-0.07106879047729574,0,FALSE,FALSE,-0.616397398677,-0.05653015690856317
PKO,HEAD CREEK,910-550500-00000-00000-0000-0000-000-000-000-000-000-000,6,PKO-13,1957,0,21.321,3.059692502512868,750,6.620073206530356,4813.59611720924,1328.86563274022,6.418128156278987,1.8591265107461687,0.0056,0.0136,0.06,-0.64761,0.288537,CWH,-0.3276691034772351,0,FALSE,FALSE,-0.616397398677,-0.4197208199864171
PKO,HEAD CREEK,910-550500-00000-00000-0000-0000-000-000-000-000-000-000,6,PKO-13,1959,0,21.321,3.059692502512868,3500,8.160518247477505,29539.9567074604,4813.59611720924,8.439987630702971,2.1329808430502717,0.0056,0.0136,0.06,-0.64761,0.288537,CWH,0.7824977620566573,0,FALSE,FALSE,-0.616397398677,-0.4197208199864171
PKO,HEAD CREEK,910-550500-00000-00000-0000-0000-000-000-000-000-000-000,6,PKO-13,1961,0,21.321,3.059692502512868,15000,9.615805480084347,29434.1444093009,29539.9567074604,1.9622762939533933,0.6741051738348136,0.0056,0.0136,0.06,-0.64761,0.288537,CWH,0.00583928468743269,0,FALSE,FALSE,-0.616397398677,-0.4197208199864171
PKO,HEAD CREEK,910-550500-00000-00000-0000-0000-000-000-000-000-000-000,6,PKO-13,1963,0,21.321,3.059692502512868,15000,9.615805480084347,45600.8928144083,29434.1444093009,3.040059520960553,1.1118770944897989,0.0042,0.0102,0.06,-0.64761,0.288537,CWH,0.5797944041154652,0,FALSE,FALSE,-0.616397398677,-0.46446169877137006
PKO,HEAD CREEK,910-550500-00000-00000-0000-0000-000-000-000-000-000-000,6,PKO-13,1965,0,21.321,3.059692502512868,15000,9.615805480084347,2182.43419966344,45600.8928144083,0.145495613310896,-1.927609341891089,0.0042,0.0102,0.06,-0.64761,0.288537,CWH,-0.7093794641235007,0,FALSE,FALSE,-0.616397398677,-0.46446169877137006
PKO,HEAD CREEK,910-550500-00000-00000-0000-0000-000-000-000-000-000-000,6,PKO-13,1967,0,21.321,3.059692502512868,1500,7.313220387090301,584.492810034707,2182.43419966344,0.3896618733564713,-0.9424759073065196,0.0024,0.0057,0.06,-0.64761,0.288537,CWH,-0.48089809283299456,0,FALSE,FALSE,-0.616397398677,-0.5236775677514549
PKO,HEAD CREEK,910-550500-00000-00000-0000-0000-000-000-000-000-000-000,6,PKO-13,1969,0,21.321,3.059692502512868,500,6.214608098422191,5820.56384407296,584.492810034707,11.64112768814592,2.4545443180355937,0.0024,0.0057,0.06,-0.64761,0.288537,CWH,0.09673401232408343,0,FALSE,FALSE,-0.616397398677,-0.5236775677514549
PKO,HEAD CREEK,910-550500-00000-00000-0000-0000-000-000-000-000-000-000,6,PKO-13,1971,0,21.321,3.059692502512868,4500,8.411832675758411,6910.40317455077,5820.56384407296,1.535645149900171,0.42895058583533174,0.0024,0.0057,0.06,-0.64761,0.288537,CWH,-0.34080392906905344,0,FALSE,FALSE,-0.616397398677,-0.5236775677514549
PKO,HEAD CREEK,910-550500-00000-00000-0000-0000-000-000-000-000-000-000,6,PKO-13,1973,0,21.321,3.059692502512868,4000,8.294049640102028,3588.57997409998,6910.40317455077,0.897144993524995,-0.10853778726037175,0.002,0.0049,0.06,-0.64761,0.288537,CWH,-0.20355231452664888,0,FALSE,FALSE,-0.616397398677,-0.5342048333479145
PKO,HEAD CREEK,910-550500-00000-00000-0000-0000-000-000-000-000-000-000,6,PKO-13,1975,0,21.321,3.059692502512868,2500,7.824046010856292,1205.11841612347,3588.57997409998,0.482047366449388,-0.7297128991178962,0.002,0.0049,0.06,-0.64761,0.288537,CWH,1.2286162579398736,0,FALSE,FALSE,-0.616397398677,-0.5342048333479145
PKO,HEAD CREEK,910-550500-00000-00000-0000-0000-000-000-000-000-000-000,6,PKO-13,1977,0,21.321,3.059692502512868,700,6.551080335043404,1093.54068264408,1205.11841612347,1.5622009752058288,0.44609570844545177,4e-4,0.001,0.06,-0.64761,0.288537,CWH,0.9724829797884954,0,FALSE,FALSE,-0.616397398677,-0.5855252531306547
PKO,HEAD CREEK,910-550500-00000-00000-0000-0000-000-000-000-000-000-000,6,PKO-13,1979,0,21.321,3.059692502512868,650,6.476972362889683,5844.17060258407,1093.54068264408,8.991031696283185,2.1962276023309992,4e-4,0.001,0.06,-0.64761,0.288537,CWH,-1.19975713829789,0,FALSE,FALSE,-0.616397398677,-0.5855252531306547
PKO,HEAD CREEK,910-550500-00000-00000-0000-0000-000-000-000-000-000-000,6,PKO-13,1981,0,21.321,3.059692502512868,2000,7.600902459542082,11172.0072399076,5844.17060258407,5.5860036199538,1.7202641155631975,4e-4,0.001,0.06,-0.64761,0.288537,CWH,-0.22613906119882837,0,FALSE,FALSE,-0.616397398677,-0.5855252531306547
PKO,HEAD CREEK,910-550500-00000-00000-0000-0000-000-000-000-000-000-000,6,PKO-13,1983,0,21.321,3.059692502512868,6500,8.779557455883728,17287.8638347865,11172.0072399076,2.6596713591979233,0.9782025659870668,4e-4,0.001,0.06,-0.64761,0.288537,CWH,0.10267616261581472,0,FALSE,FALSE,-0.616397398677,-0.5855252531306547
PKO,HEAD CREEK,910-550500-00000-00000-0000-0000-000-000-000-000-000-000,6,PKO-13,1985,0,21.321,3.059692502512868,9500,9.159047077588632,4938.0732589957,17287.8638347865,0.5197971851574421,-0.65431657203096,4e-4,0.001,0.06,-0.64761,0.288537,CWH,-0.9758993397997916,0,FALSE,FALSE,-0.616397398677,-0.5855252531306547
PKO,HEAD CREEK,910-550500-00000-00000-0000-0000-000-000-000-000-000-000,6,PKO-13,1987,0,21.321,3.059692502512868,2400,7.783224016336037,4448.01892187249,4938.0732589957,1.8533412174468709,0.6169900736034288,0,0,0.06,-0.64761,0.288537,CWH,0.8862048812919091,0,FALSE,FALSE,-0.616397398677,-0.5986843351262291
PKO,HEAD CREEK,910-550500-00000-00000-0000-0000-000-000-000-000-000-000,6,PKO-13,1989,0,21.321,3.059692502512868,4000,8.294049640102028,6588.47695883241,4448.01892187249,1.6471192397081025,0.49902784669759515,0,0,0.06,-0.64761,0.288537,CWH,0.15947767939610902,0,FALSE,FALSE,-0.616397398677,-0.5986843351262291
PKO,HEAD CREEK,910-550500-00000-00000-0000-0000-000-000-000-000-000-000,6,PKO-13,1991,0,21.321,3.059692502512868,5000,8.517193191416238,3745.22706390363,6588.47695883241,0.749045412780726,-0.28895566608699286,0,0,0.06,-0.64761,0.288537,CWH,-0.18487911555035336,0,FALSE,FALSE,-0.616397398677,-0.5986843351262291
PKO,HEAD CREEK,910-550500-00000-00000-0000-0000-000-000-000-000-000-000,6,PKO-13,1993,0,21.321,3.059692502512868,3500,8.160518247477505,3410.6548648792,3745.22706390363,0.9744728185369143,-0.025858653151171494,0,0,0.06,-0.64761,0.288537,CWH,-1.7567819796155162,0,FALSE,FALSE,-0.616397398677,-0.5986843351262291
PKO,HEAD CREEK,910-550500-00000-00000-0000-0000-000-000-000-000-000-000,6,PKO-13,1995,0,21.321,3.059692502512868,3000,8.006367567650246,4121.61608783483,3410.6548648792,1.3738720292782767,0.31763305211055026,0,0,0.06,-0.64761,0.288537,CWH,-0.5672147431639023,0,FALSE,FALSE,-0.616397398677,-0.5986843351262291
PKO,HEAD CREEK,910-550500-00000-00000-0000-0000-000-000-000-000-000-000,6,PKO-13,1997,0,21.321,3.059692502512868,3500,8.160518247477505,3498.92527120711,4121.61608783483,0.9996929346306029,-3.0711252362080504e-4,0,0,0.06,-0.64761,0.288537,CWH,0.8907774948170872,0,FALSE,FALSE,-0.616397398677,-0.5986843351262291
PKO,HEAD CREEK,910-550500-00000-00000-0000-0000-000-000-000-000-000-000,6,PKO-13,1999,0,21.321,3.059692502512868,3200,8.070906088787819,15694.0806732818,3498.92527120711,4.904400210400563,1.5901328042764615,0,0,0.06,-0.64761,0.288537,CWH,1.6302835492491898,0,FALSE,FALSE,-0.616397398677,-0.5986843351262291
PKO,HEAD CREEK,910-550500-00000-00000-0000-0000-000-000-000-000-000-000,6,PKO-13,2001,0,21.321,3.059692502512868,11500,9.350102314351341,4573.96799124216,15694.0806732818,0.39773634706453564,-0.921965937772515,0,0,0.06,-0.64761,0.288537,CWH,1.9190067210816288,0,FALSE,FALSE,-0.616397398677,-0.5986843351262291
PKO,HEAD CREEK,910-550500-00000-00000-0000-0000-000-000-000-000-000-000,6,PKO-13,2007,0,21.321,3.059692502512868,4500,8.411832675758411,5933.5045916464,5603.46372456862,1.3185565759214222,0.27653763519773455,0,0,0.06,-0.64761,0.288537,CWH,0.8768892458318005,0,FALSE,FALSE,-0.616397398677,-0.5986843351262291
PKO,AALTANHASH RIVER,910-550600-00000-00000-0000-0000-000-000-000-000-000-000,6,PKO-13,1959,0,101.95,4.624482497020464,3500,8.160518247477505,14769.9783537302,4813.59611720924,4.2199938153514855,1.4398336624903265,0.0251,0.0517,0.014,0.14918,0.147043,CWH,0.7824977620566573,0,FALSE,FALSE,0.48021479881925766,0.08164020404496823
PKO,AALTANHASH RIVER,910-550600-00000-00000-0000-0000-000-000-000-000-000-000,6,PKO-13,1961,0,101.95,4.624482497020464,7500,8.922658299524402,29434.1444093009,14769.9783537302,3.9245525879067866,1.367252354394759,0.0251,0.0517,0.014,0.14918,0.147043,CWH,0.00583928468743269,0,FALSE,FALSE,0.48021479881925766,0.08164020404496823
PKO,AALTANHASH RIVER,910-550600-00000-00000-0000-0000-000-000-000-000-000-000,6,PKO-13,1963,0,101.95,4.624482497020464,15000,9.615805480084347,22800.4464072042,29434.1444093009,1.52002976048028,0.4187299139298558,0.0251,0.0517,0.014,0.14918,0.147043,CWH,0.5797944041154652,0,FALSE,FALSE,0.48021479881925766,0.08164020404496823
PKO,AALTANHASH RIVER,910-550600-00000-00000-0000-0000-000-000-000-000-000-000,6,PKO-13,1969,0,101.95,4.624482497020464,120,4.787491742782046,2586.91726403243,140.27827440833,21.557643866936917,3.070730457459412,0.0168,0.0346,0.014,0.14918,0.147043,CWH,0.09673401232408343,0,FALSE,FALSE,0.48021479881925766,-0.14338009807935434
PKO,AALTANHASH RIVER,910-550600-00000-00000-0000-0000-000-000-000-000-000-000,6,PKO-13,1971,0,101.95,4.624482497020464,2000,7.600902459542082,863.800396818846,2586.91726403243,0.431900198409423,-0.8395607396281757,0.0168,0.0346,0.014,0.14918,0.147043,CWH,-0.34080392906905344,0,FALSE,FALSE,0.48021479881925766,-0.14338009807935434
PKO,AALTANHASH RIVER,910-550600-00000-00000-0000-0000-000-000-000-000-000-000,6,PKO-13,1977,0,101.95,4.624482497020464,1000,6.907755278982137,1177.65919669363,1721.59773731924,1.17765919669363,0.16352873666044573,0.0062,0.0127,0.014,0.14918,0.147043,CWH,0.9724829797884954,0,FALSE,FALSE,0.48021479881925766,-0.4315639937824341
PKO,AALTANHASH RIVER,910-550600-00000-00000-0000-0000-000-000-000-000-000-000,6,PKO-13,1979,0,101.95,4.624482497020464,700,6.551080335043404,4383.12795193806,1177.65919669363,6.261611359911513,1.8344375577254979,0.0059,0.0121,0.014,0.14918,0.147043,CWH,-1.19975713829789,0,FALSE,FALSE,0.48021479881925766,-0.4394594429797787
PKO,AALTANHASH RIVER,910-550600-00000-00000-0000-0000-000-000-000-000-000-000,6,PKO-13,1981,0,101.95,4.624482497020464,1500,7.313220387090301,6015.69620610408,4383.12795193806,4.01046413740272,1.388906979608753,0.0059,0.0121,0.014,0.14918,0.147043,CWH,-0.22613906119882837,0,FALSE,FALSE,0.48021479881925766,-0.4394594429797787
PKO,AALTANHASH RIVER,910-550600-00000-00000-0000-0000-000-000-000-000-000-000,6,PKO-13,1983,0,101.95,4.624482497020464,3500,8.160518247477505,6369.21299176343,6015.69620610408,1.8197751405038372,0.5987129442821603,0.0059,0.0121,0.014,0.14918,0.147043,CWH,0.10267616261581472,0,FALSE,FALSE,0.48021479881925766,-0.4394594429797787
PKO,AALTANHASH RIVER,910-550600-00000-00000-0000-0000-000-000-000-000-000-000,6,PKO-13,1985,0,101.95,4.624482497020464,3500,8.160518247477505,2469.03662949785,6369.21299176343,0.7054390369993857,-0.3489349224797782,0.0059,0.0121,0.014,0.14918,0.147043,CWH,-0.9758993397997916,0,FALSE,FALSE,0.48021479881925766,-0.4394594429797787
PKO,AALTANHASH RIVER,910-550600-00000-00000-0000-0000-000-000-000-000-000-000,6,PKO-13,1987,0,101.95,4.624482497020464,1200,7.090076835776092,2668.8113531235,2469.03662949785,2.2240094609362497,0.7993116303973855,0.0048,0.01,0.014,0.14918,0.147043,CWH,0.8862048812919091,0,FALSE,FALSE,0.48021479881925766,-0.467093515170485
PKO,AALTANHASH RIVER,910-550600-00000-00000-0000-0000-000-000-000-000-000-000,6,PKO-13,1989,0,101.95,4.624482497020464,2400,7.783224016336037,9223.86774236537,2668.8113531235,3.843278225985571,1.3463257070847983,0.0048,0.01,0.014,0.14918,0.147043,CWH,0.15947767939610902,0,FALSE,FALSE,0.48021479881925766,-0.467093515170485
PKO,AALTANHASH RIVER,910-550600-00000-00000-0000-0000-000-000-000-000-000-000,6,PKO-13,1991,0,101.95,4.624482497020464,7000,8.85366542803745,11235.6811917109,9223.86774236537,1.6050973131015573,0.47318438595990486,0.0048,0.01,0.014,0.14918,0.147043,CWH,-0.18487911555035336,0,FALSE,FALSE,0.48021479881925766,-0.467093515170485
PKO,AALTANHASH RIVER,910-550600-00000-00000-0000-0000-000-000-000-000-000-000,6,PKO-13,1993,0,101.95,4.624482497020464,10500,9.259130536145614,5115.9822973188,11235.6811917109,0.4872364092684572,-0.7190058337111167,0.0048,0.01,0.014,0.14918,0.147043,CWH,-1.7567819796155162,0,FALSE,FALSE,0.48021479881925766,-0.467093515170485
PKO,AALTANHASH RIVER,910-550600-00000-00000-0000-0000-000-000-000-000-000-000,6,PKO-13,1995,0,101.95,4.624482497020464,4500,8.411832675758411,3650.57424922514,5115.9822973188,0.8112387220500311,-0.20919291300188023,0.0048,0.01,0.014,0.14918,0.147043,CWH,-0.5672147431639023,0,FALSE,FALSE,0.48021479881925766,-0.467093515170485
PKO,AALTANHASH RIVER,910-550600-00000-00000-0000-0000-000-000-000-000-000-000,6,PKO-13,1997,0,101.95,4.624482497020464,3100,8.039157390473237,7872.581860216,3650.57424922514,2.539542535553548,0.9319839606969755,0.001,0.0022,0.014,0.14918,0.147043,CWH,0.8907774948170872,0,FALSE,FALSE,0.48021479881925766,-0.5697343547359655
PKO,AALTANHASH RIVER,910-550600-00000-00000-0000-0000-000-000-000-000-000-000,6,PKO-13,1999,0,101.95,4.624482497020464,7200,8.881836305004146,16376.4320069028,7872.581860216,2.2745044454031667,0.8217622024789318,9e-4,0.0019,0.014,0.14918,0.147043,CWH,1.6302835492491898,0,FALSE,FALSE,0.48021479881925766,-0.5736820793346378
PKO,AALTANHASH RIVER,910-550600-00000-00000-0000-0000-000-000-000-000-000-000,6,PKO-13,2001,0,101.95,4.624482497020464,12000,9.392661928770137,5164.15740946695,16376.4320069028,0.43034645078891254,-0.8431646951870444,9e-4,0.0019,0.014,0.14918,0.147043,CWH,1.9190067210816288,0,FALSE,FALSE,0.48021479881925766,-0.5736820793346378
PKO,AALTANHASH RIVER,910-550600-00000-00000-0000-0000-000-000-000-000-000-000,6,PKO-13,2007,0,101.95,4.624482497020464,10000,9.210340371976184,14188.8153278501,12452.1416101525,1.41888153278501,0.3498689082832851,0,1e-4,0.014,0.14918,0.147043,CWH,0.8768892458318005,0,FALSE,FALSE,0.48021479881925766,-0.5973684269266717
PKO,AALTANHASH RIVER,910-550600-00000-00000-0000-0000-000-000-000-000-000-000,6,PKO-13,2009,0,101.95,4.624482497020464,11000,9.305650551780507,5462.13038036823,14188.8153278501,0.49655730730620273,-0.7000563795871839,0,0,0.014,0.14918,0.147043,CWH,1.604652193542091,0,FALSE,FALSE,0.48021479881925766,-0.5986843351262291
PKO,AALTANHASH RIVER,910-550600-00000-00000-0000-0000-000-000-000-000-000-000,6,PKO-13,2011,0,101.95,4.624482497020464,4600,8.433811582477187,15430.9431802307,5462.13038036823,3.354552865267544,1.2103184874040172,0,0,0.014,0.14918,0.147043,CWH,0.7408851700104637,0,FALSE,FALSE,0.48021479881925766,-0.5986843351262291
PKO,AALTANHASH RIVER,910-550600-00000-00000-0000-0000-000-000-000-000-000-000,6,PKO-13,2013,0,101.95,4.624482497020464,11800,9.375854810453756,1345.28556780333,15430.9431802307,0.11400725150875678,-2.1714932228847177,0,0,0.014,0.14918,0.147043,CWH,-0.5528640906240193,0,FALSE,FALSE,0.48021479881925766,-0.5986843351262291
PKO,MARMOT COVE CREEK,910-554200-00000-00000-0000-0000-000-000-000-000-000-000,6,PKO-13,1957,54226.3882208709,23.528,3.158191201251694,400,5.991464547107982,4813.59611720924,708.728337461451,12.0339902930231,2.4877351701685426,0.0083,0.0242,0.107,0.25843,0.255392,CWH,-0.3276691034772351,0,FALSE,FALSE,-0.5473690467232953,-0.28023455083332827
PKO,MARMOT COVE CREEK,910-554200-00000-00000-0000-0000-000-000-000-000-000-000,6,PKO-13,1959,0,23.528,3.158191201251694,3500,8.160518247477505,6892.6565650741,4813.59611720924,1.9693304471640287,0.6776936104434308,0.0083,0.0242,0.107,0.25843,0.255392,CWH,0.7824977620566573,0,FALSE,FALSE,-0.5473690467232953,-0.28023455083332827
PKO,MARMOT COVE CREEK,910-554200-00000-00000-0000-0000-000-000-000-000-000-000,6,PKO-13,1961,0,23.528,3.158191201251694,3500,8.160518247477505,14717.0722046504,6892.6565650741,4.204877772757257,1.436245225881707,0.0083,0.0242,0.107,0.25843,0.255392,CWH,0.00583928468743269,0,FALSE,FALSE,-0.5473690467232953,-0.28023455083332827
PKO,MARMOT COVE CREEK,910-554200-00000-00000-0000-0000-000-000-000-000-000-000,6,PKO-13,1963,0,23.528,3.158191201251694,7500,8.922658299524402,10640.2083233619,14717.0722046504,1.41869444311492,0.34973704244289877,0.0083,0.0242,0.107,0.25843,0.255392,CWH,0.5797944041154652,0,FALSE,FALSE,-0.5473690467232953,-0.28023455083332827
PKO,MARMOT COVE CREEK,910-554200-00000-00000-0000-0000-000-000-000-000-000-000,6,PKO-13,1971,0,23.528,3.158191201251694,750,6.620073206530356,691.040317455077,970.09397401216,0.9213870899401027,-0.08187503793065894,0.0037,0.0109,0.107,0.25843,0.255392,CWH,-0.34080392906905344,0,FALSE,FALSE,-0.5473690467232953,-0.455250341374468
PKO,MARMOT COVE CREEK,910-554200-00000-00000-0000-0000-000-000-000-000-000-000,6,PKO-13,1973,0,23.528,3.158191201251694,400,5.991464547107982,430.629596891998,691.040317455077,1.076573992229995,0.07378376953358387,0.0037,0.0109,0.107,0.25843,0.255392,CWH,-0.20355231452664888,0,FALSE,FALSE,-0.5473690467232953,-0.455250341374468
PKO,MARMOT COVE CREEK,910-554200-00000-00000-0000-0000-000-000-000-000-000-000,6,PKO-13,1975,0,23.528,3.158191201251694,300,5.703782474656201,25.8239660597887,430.629596891998,0.08607988686596232,-2.452479496858998,0.0037,0.0109,0.107,0.25843,0.255392,CWH,1.2286162579398736,0,FALSE,FALSE,-0.5473690467232953,-0.455250341374468