Species,River,WATERSHED_CDE,DFO,CU,BroodYear,hararea_m2_3005,area_km2,ln_area_km2,Spawners,logS,Recruits,Returns,recruitPerSpawner,ln_RS,ECA_age_proxy,ECA_age_proxy_forested_only,lake_cover_pct,var_eaubc_KFACTOR,var_eaubc_MELTONS_R,vri_bec_zone,npgo,portion_reporting_vri_cover1_missing,hatchery_enhancement,year_of_enhacement,ln_area_km2_std,ECA_age_proxy_forested_only_std
PKO,STUMAUN CREEK,910-828500-00000-00000-0000-0000-000-000-000-000-000-000,3,PKO-14,1989,28579.4852972045,15.637,2.749639900861373,6000,8.699514748210191,51916.6880654276,14358.6040984367,8.652781344237933,2.1578808119464834,0.0018,0.0022,0.002,0.22852,0.212995,CWH,0.15947767939610902,0,FALSE,FALSE,-0.8336837221005274,-0.5697343547359655
PKO,STUMAUN CREEK,910-828500-00000-00000-0000-0000-000-000-000-000-000-000,3,PKO-14,1991,56081.8469177756,15.637,2.749639900861373,10000,9.210340371976184,3232.80441991348,51916.6880654276,0.32328044199134803,-1.1292350910037838,0.0054,0.0064,0.002,0.22852,0.212995,CWH,-0.18487911555035336,0,FALSE,FALSE,-0.8336837221005274,-0.5144662103545529
PKO,STUMAUN CREEK,910-828500-00000-00000-0000-0000-000-000-000-000-000-000,3,PKO-14,1993,0,15.637,2.749639900861373,1000,6.907755278982137,18776.6643185238,3232.80441991348,18.7766643185238,2.9326148391820768,0.0073,0.0086,0.002,0.22852,0.212995,CWH,-1.7567819796155162,0,FALSE,FALSE,-0.8336837221005274,-0.4855162299642891
PKO,STUMAUN CREEK,910-828500-00000-00000-0000-0000-000-000-000-000-000-000,3,PKO-14,1995,0,15.637,2.749639900861373,7500,8.922658299524402,1210.15622644923,18776.6643185238,0.16135416352656398,-1.8241535564999924,0.0073,0.0086,0.002,0.22852,0.212995,CWH,-0.5672147431639023,0,FALSE,FALSE,-0.8336837221005274,-0.4855162299642891
PKO,STUMAUN CREEK,910-828500-00000-00000-0000-0000-000-000-000-000-000-000,3,PKO-14,1997,0,15.637,2.749639900861373,700,6.551080335043404,11768.363458949,1210.15622644923,16.811947798498572,2.8220898121236893,0.0073,0.0086,0.002,0.22852,0.212995,CWH,0.8907774948170872,0,FALSE,FALSE,-0.8336837221005274,-0.4855162299642891
PKO,STUMAUN CREEK,910-828500-00000-00000-0000-0000-000-000-000-000-000-000,3,PKO-14,1999,0,15.637,2.749639900861373,4500,8.411832675758411,21259.5920214276,11768.363458949,4.724353782539467,1.5527307859923258,0.0073,0.0086,0.002,0.22852,0.212995,CWH,1.6302835492491898,0,FALSE,FALSE,-0.8336837221005274,-0.4855162299642891
PKO,STUMAUN CREEK,910-828500-00000-00000-0000-0000-000-000-000-000-000-000,3,PKO-14,2001,0,15.637,2.749639900861373,15000,9.615805480084347,41821.3364320044,21259.5920214276,2.78808909546696,1.025356449154873,0.0068,0.0081,0.002,0.22852,0.212995,CWH,1.9190067210816288,0,FALSE,FALSE,-0.8336837221005274,-0.49209577096207635
PKO,STUMAUN CREEK,910-828500-00000-00000-0000-0000-000-000-000-000-000-000,3,PKO-14,2003,0,15.637,2.749639900861373,30000,10.308952660644293,21564.3916378689,41821.3364320044,0.7188130545956299,-0.33015396258541413,0.0055,0.0065,0.002,0.22852,0.212995,CWH,0.41101277747559006,0,FALSE,FALSE,-0.8336837221005274,-0.5131503021549955
PKO,STUMAUN CREEK,910-828500-00000-00000-0000-0000-000-000-000-000-000-000,3,PKO-14,2005,0,15.637,2.749639900861373,15000,9.615805480084347,31354.248101454,21564.3916378689,2.0902832067636,0.7372995624251779,0.0055,0.0065,0.002,0.22852,0.212995,CWH,-0.8145696192436794,0,FALSE,FALSE,-0.8336837221005274,-0.5131503021549955
PKO,STUMAUN CREEK,910-828500-00000-00000-0000-0000-000-000-000-000-000-000,3,PKO-14,2007,0,15.637,2.749639900861373,19500,9.878169744551839,17706.9107069958,31354.248101454,0.9080467029228616,-0.09645946676650252,0.0055,0.0065,0.002,0.22852,0.212995,CWH,0.8768892458318005,0,FALSE,FALSE,-0.8336837221005274,-0.5131503021549955
PKO,LACHMACH RIVER,910-846300-00000-00000-0000-0000-000-000-000-000-000-000,3,PKO-17,1955,0,41.647,3.7292293372071277,75,4.31748811353631,843.70935891567,133.779369925103,11.2494581188756,2.420319960279294,0.0054,0.0113,0.028,0.24656,0.185703,CWH,-0.07106879047729574,0,FALSE,FALSE,-0.14718283175372174,-0.4499867085762383
PKO,LACHMACH RIVER,910-846300-00000-00000-0000-0000-000-000-000-000-000-000,3,PKO-17,1961,0,41.647,3.7292293372071277,200,5.298317366548036,1929.58602033761,334.845833638106,9.64793010168805,2.2667433951086737,0.0049,0.0104,0.028,0.24656,0.185703,CWH,0.00583928468743269,0,FALSE,FALSE,-0.14718283175372174,-0.4618298823722552
PKO,LACHMACH RIVER,910-846300-00000-00000-0000-0000-000-000-000-000-000-000,3,PKO-17,1963,0,41.647,3.7292293372071277,1500,7.313220387090301,9027.74175207277,1929.58602033761,6.018494501381847,1.7948371452178693,0.0036,0.0075,0.028,0.24656,0.185703,CWH,0.5797944041154652,0,FALSE,FALSE,-0.14718283175372174,-0.49999122015942105
PKO,LACHMACH RIVER,910-846300-00000-00000-0000-0000-000-000-000-000-000-000,3,PKO-17,1965,0,41.647,3.7292293372071277,5000,8.517193191416238,2286.57999796769,9027.74175207277,0.45731599959353797,-0.7823806618461071,0.0036,0.0075,0.028,0.24656,0.185703,CWH,-0.7093794641235007,0,FALSE,FALSE,-0.14718283175372174,-0.49999122015942105
PKO,LACHMACH RIVER,910-846300-00000-00000-0000-0000-000-000-000-000-000-000,3,PKO-17,1967,0,41.647,3.7292293372071277,1000,6.907755278982137,4292.20643680704,2286.57999796769,4.29220643680704,1.4568009216562887,0.0036,0.0075,0.028,0.24656,0.185703,CWH,-0.48089809283299456,0,FALSE,FALSE,-0.14718283175372174,-0.49999122015942105
PKO,LACHMACH RIVER,910-846300-00000-00000-0000-0000-000-000-000-000-000-000,3,PKO-17,1969,0,41.647,3.7292293372071277,2500,7.824046010856292,10787.1954159671,4292.20643680704,4.3148781663868405,1.4620690892322228,0.0036,0.0075,0.028,0.24656,0.185703,CWH,0.09673401232408343,0,FALSE,FALSE,-0.14718283175372174,-0.49999122015942105
PKO,LACHMACH RIVER,910-846300-00000-00000-0000-0000-000-000-000-000-000-000,3,PKO-17,1981,0.17699537309818,41.647,3.7292293372071277,25,3.2188758248682006,1655.72689823286,44.9526770132805,66.2290759293144,4.193119579950728,0.0661,0.1388,0.028,0.24656,0.185703,CWH,-0.22613906119882837,0,FALSE,FALSE,-0.14718283175372174,1.2277962458595
PKO,LACHMACH RIVER,910-846300-00000-00000-0000-0000-000-000-000-000-000-000,3,PKO-17,1983,0,41.647,3.7292293372071277,500,6.214608098422191,6154.49598024942,1655.72689823286,12.30899196049884,2.510330048987872,0.0659,0.1382,0.028,0.24656,0.185703,CWH,0.10267616261581472,0,FALSE,FALSE,-0.14718283175372174,1.2199007966621551
PKO,LACHMACH RIVER,910-846300-00000-00000-0000-0000-000-000-000-000-000-000,3,PKO-17,1985,0,41.647,3.7292293372071277,3000,8.006367567650246,6729.16332241269,6154.49598024942,2.24305444080423,0.8078385266676132,0.0659,0.1382,0.028,0.24656,0.185703,CWH,-0.9758993397997916,0,FALSE,FALSE,-0.14718283175372174,1.2199007966621551
PKO,LACHMACH RIVER,910-846300-00000-00000-0000-0000-000-000-000-000-000-000,3,PKO-17,1987,0,41.647,3.7292293372071277,3000,8.006367567650246,21537.906147655,6729.16332241269,7.179302049218334,1.9712021707054066,0.0659,0.1382,0.028,0.24656,0.185703,CWH,0.8862048812919091,0,FALSE,FALSE,-0.14718283175372174,1.2199007966621551
PKO,LACHMACH RIVER,910-846300-00000-00000-0000-0000-000-000-000-000-000-000,3,PKO-17,1989,0,41.647,3.7292293372071277,9000,9.104979856318357,67491.6944850558,21537.906147655,7.4990771650062005,2.0147799683058087,0.0501,0.1052,0.028,0.24656,0.185703,CWH,0.15947767939610902,0,FALSE,FALSE,-0.14718283175372174,0.7856510908081995
PKO,LACHMACH RIVER,910-846300-00000-00000-0000-0000-000-000-000-000-000-000,3,PKO-17,1991,0,41.647,3.7292293372071277,13000,9.472704636443673,25862.4353593078,67491.6944850558,1.9894181045621386,0.6878421862085595,0.0501,0.1052,0.028,0.24656,0.185703,CWH,-0.18487911555035336,0,FALSE,FALSE,-0.14718283175372174,0.7856510908081995
PKO,LACHMACH RIVER,910-846300-00000-00000-0000-0000-000-000-000-000-000-000,3,PKO-17,1993,0,41.647,3.7292293372071277,8000,8.987196820661973,60085.3258192761,25862.4353593078,7.5106657274095125,2.0163241073079208,0.05,0.1051,0.028,0.24656,0.185703,CWH,-1.7567819796155162,0,FALSE,FALSE,-0.14718283175372174,0.784335182608642
PKO,LACHMACH RIVER,910-846300-00000-00000-0000-0000-000-000-000-000-000-000,3,PKO-17,1995,0,41.647,3.7292293372071277,24000,10.085809109330082,3780.87381034922,60085.3258192761,0.15753640876455083,-1.8480986806723148,0.05,0.1051,0.028,0.24656,0.185703,CWH,-0.5672147431639023,0,FALSE,FALSE,-0.14718283175372174,0.784335182608642
PKO,LACHMACH RIVER,910-846300-00000-00000-0000-0000-000-000-000-000-000-000,3,PKO-17,1997,0,41.647,3.7292293372071277,2187,7.690286020676768,54919.0294750954,3780.87381034922,25.111581835891815,3.223329167437476,0.05,0.1051,0.028,0.24656,0.185703,CWH,0.8907774948170872,0,FALSE,FALSE,-0.14718283175372174,0.784335182608642
PKO,LACHMACH RIVER,910-846300-00000-00000-0000-0000-000-000-000-000-000-000,3,PKO-17,1999,0,41.647,3.7292293372071277,21000,9.95227771670556,18424.9797519039,54919.0294750954,0.8773799881858999,-0.13081509859549775,0.0186,0.039,0.028,0.24656,0.185703,CWH,1.6302835492491898,0,FALSE,FALSE,-0.14718283175372174,-0.08548013729882689
PKO,LACHMACH RIVER,910-846300-00000-00000-0000-0000-000-000-000-000-000-000,3,PKO-17,2005,0,41.647,3.7292293372071277,15000,9.615805480084347,48237.3047714678,21564.3916378689,3.2158203180978537,1.1680824785176347,0.021,0.044,0.028,0.24656,0.185703,CWH,-0.8145696192436794,0,FALSE,FALSE,-0.14718283175372174,-0.01968472732095484
PKO,LACHMACH RIVER,910-846300-00000-00000-0000-0000-000-000-000-000-000-000,3,PKO-17,2007,0,41.647,3.7292293372071277,30000,10.308952660644293,38343.7418906887,48237.3047714678,1.2781247296896234,0.24539394875922596,0.021,0.044,0.028,0.24656,0.185703,CWH,0.8768892458318005,0,FALSE,FALSE,-0.14718283175372174,-0.01968472732095484
PKO,TOON RIVER,910-855600-00000-00000-0000-0000-000-000-000-000-000-000,3,PKO-17,1955,0,132.596,4.887306911384243,75,4.31748811353631,1581.95504796688,133.779369925103,21.092733972891736,3.0489286197016674,0.0031,0.0071,0.018,-8.29611,0.222481,MH,-0.07106879047729574,0,FALSE,FALSE,0.6644033861714064,-0.5052548529576507
PKO,TOON RIVER,910-855600-00000-00000-0000-0000-000-000-000-000-000-000,3,PKO-17,1957,0,132.596,4.887306911384243,750,6.620073206530356,1405.92663769711,1581.95504796688,1.8745688502628133,0.6283786864541185,0.0031,0.0071,0.018,-8.29611,0.222481,MH,-0.3276691034772351,0,FALSE,FALSE,0.6644033861714064,-0.5052548529576507
PKO,TOON RIVER,910-855600-00000-00000-0000-0000-000-000-000-000-000-000,3,PKO-17,1963,0,132.596,4.887306911384243,3500,8.160518247477505,27083.2252562183,4502.36738078776,7.738064358919514,2.0461515734987747,0.0028,0.0063,0.018,-8.29611,0.222481,MH,0.5797944041154652,0,FALSE,FALSE,0.6644033861714064,-0.5157821185541103
PKO,TOON RIVER,910-855600-00000-00000-0000-0000-000-000-000-000-000-000,3,PKO-17,1965,667511.51878461,132.596,4.887306911384243,15000,9.615805480084347,18292.6399837415,27083.2252562183,1.2195093322494335,0.1984485911656182,0.0114,0.0257,0.018,-8.29611,0.222481,MH,-0.7093794641235007,0,FALSE,FALSE,0.6644033861714064,-0.2604959278399666
PKO,TOON RIVER,910-855600-00000-00000-0000-0000-000-000-000-000-000-000,3,PKO-17,1967,215989.876010966,132.596,4.887306911384243,8000,8.987196820661973,5150.64772416845,18292.6399837415,0.6438309655210562,-0.440319063229592,0.0175,0.0395,0.018,-8.29611,0.222481,MH,-0.48089809283299456,0,FALSE,FALSE,0.6644033861714064,-0.07890059630103968
PKO,TOON RIVER,910-855600-00000-00000-0000-0000-000-000-000-000-000-000,3,PKO-17,1969,30675.5849129939,132.596,4.887306911384243,3000,8.006367567650246,10787.1954159671,5150.64772416845,3.595731805322367,1.279747532438268,0.0177,0.0399,0.018,-8.29611,0.222481,MH,0.09673401232408343,0,FALSE,FALSE,0.6644033861714064,-0.07363696350280995
PKO,TOON RIVER,910-855600-00000-00000-0000-0000-000-000-000-000-000-000,3,PKO-17,1971,59246.3818627481,132.596,4.887306911384243,7000,8.85366542803745,5771.98649040588,10787.1954159671,0.8245694986294115,-0.19289384868594964,0.0181,0.0409,0.018,-8.29611,0.222481,MH,-0.34080392906905344,0,FALSE,FALSE,0.6644033861714064,-0.060477881507235515
PKO,TOON RIVER,910-855600-00000-00000-0000-0000-000-000-000-000-000-000,3,PKO-17,1973,0,132.596,4.887306911384243,4000,8.294049640102028,6991.95582334641,5771.98649040588,1.7479889558366026,0.558465959042104,0.0181,0.0408,0.018,-8.29611,0.222481,MH,-0.20355231452664888,0,FALSE,FALSE,0.6644033861714064,-0.061793789706792904
PKO,TOON RIVER,910-855600-00000-00000-0000-0000-000-000-000-000-000-000,3,PKO-17,1975,0,132.596,4.887306911384243,5000,8.517193191416238,2283.48257947125,6991.95582334641,0.45669651589425003,-0.7837361876920814,0.0162,0.0365,0.018,-8.29611,0.222481,MH,1.2286162579398736,0,FALSE,FALSE,0.6644033861714064,-0.11837784228776296
PKO,TOON RIVER,910-855600-00000-00000-0000-0000-000-000-000-000-000-000,3,PKO-17,1981,0,132.596,4.887306911384243,500,6.214608098422191,3311.45379646571,899.05354026561,6.62290759293142,1.8905344869566794,0.0133,0.0301,0.018,-8.29611,0.222481,MH,-0.22613906119882837,0,FALSE,FALSE,0.6644033861714064,-0.20259596705943922
PKO,TOON RIVER,910-855600-00000-00000-0000-0000-000-000-000-000-000-000,3,PKO-17,1983,0,132.596,4.887306911384243,1000,6.907755278982137,10257.4933004157,3311.45379646571,10.2574933004157,2.3280084921939177,0.0131,0.0297,0.018,-8.29611,0.222481,MH,0.10267616261581472,0,FALSE,FALSE,0.6644033861714064,-0.20785959985766897
PKO,TOON RIVER,910-855600-00000-00000-0000-0000-000-000-000-000-000-000,3,PKO-17,1985,0,132.596,4.887306911384243,5000,8.517193191416238,4934.7197697693,10257.4933004157,0.98694395395386,-0.013142025402218097,0.0107,0.0242,0.018,-8.29611,0.222481,MH,-0.9758993397997916,0,FALSE,FALSE,0.6644033861714064,-0.28023455083332827
PKO,TOON RIVER,910-855600-00000-00000-0000-0000-000-000-000-000-000-000,3,PKO-17,1987,0,132.596,4.887306911384243,2200,7.696212639346407,14358.6040984367,4934.7197697693,6.526638226562136,1.8758919909010838,0.006,0.0135,0.018,-8.29611,0.222481,MH,0.8862048812919091,0,FALSE,FALSE,0.6644033861714064,-0.42103672818597454
PKO,TOON RIVER,910-855600-00000-00000-0000-0000-000-000-000-000-000-000,3,PKO-17,1989,0,132.596,4.887306911384243,6000,8.699514748210191,129791.720163569,14358.6040984367,21.63195336059483,3.0741715438206385,0.0052,0.0116,0.018,-8.29611,0.222481,MH,0.15947767939610902,0,FALSE,FALSE,0.6644033861714064,-0.4460389839775659
PKO,TOON RIVER,910-855600-00000-00000-0000-0000-000-000-000-000-000-000,3,PKO-17,1991,0,132.596,4.887306911384243,25000,10.126631103850338,32328.0441991348,129791.720163569,1.2931217679653921,0.2570592701161068,0.0058,0.0131,0.018,-8.29611,0.222481,MH,-0.18487911555035336,0,FALSE,FALSE,0.6644033861714064,-0.42630036098420426
PKO,TOON RIVER,910-855600-00000-00000-0000-0000-000-000-000-000-000-000,3,PKO-17,1993,0,132.596,4.887306911384243,10000,9.210340371976184,10014.2209698794,32328.0441991348,1.00142209698794,0.0014210867656610062,0.0055,0.0125,0.018,-8.29611,0.222481,MH,-1.7567819796155162,0,FALSE,FALSE,0.6644033861714064,-0.4341958101815489
PKO,TOON RIVER,910-855600-00000-00000-0000-0000-000-000-000-000-000-000,3,PKO-17,1995,0,132.596,4.887306911384243,4000,8.294049640102028,5186.38382763954,10014.2209698794,1.296595956909885,0.25974233552922055,0.0051,0.0116,0.018,-8.29611,0.222481,MH,-0.5672147431639023,0,FALSE,FALSE,0.6644033861714064,-0.4460389839775659
PKO,TOON RIVER,910-855600-00000-00000-0000-0000-000-000-000-000-000-000,3,PKO-17,1997,0,132.596,4.887306911384243,3000,8.006367567650246,31382.3025571974,5186.38382763954,10.460767519065799,2.347631832528575,0.0051,0.0116,0.018,-8.29611,0.222481,MH,0.8907774948170872,0,FALSE,FALSE,0.6644033861714064,-0.4460389839775659
PKO,TOON RIVER,910-855600-00000-00000-0000-0000-000-000-000-000-000-000,3,PKO-17,1999,0,132.596,4.887306911384243,12000,9.392661928770137,28346.1226952368,31382.3025571974,2.3621768912697334,0.8595836054323804,0.0051,0.0116,0.018,-8.29611,0.222481,MH,1.6302835492491898,0,FALSE,FALSE,0.6644033861714064,-0.4460389839775659
PKO,TOON RIVER,910-855600-00000-00000-0000-0000-000-000-000-000-000-000,3,PKO-17,2001,0,132.596,4.887306911384243,20000,9.903487552536127,41821.3364320044,28346.1226952368,2.09106682160022,0.7376743767030922,0.0049,0.0112,0.018,-8.29611,0.222481,MH,1.9190067210816288,0,FALSE,FALSE,0.6644033861714064,-0.45130261677579564
PKO,TOON RIVER,910-855600-00000-00000-0000-0000-000-000-000-000-000-000,3,PKO-17,2003,0,132.596,4.887306911384243,30000,10.308952660644293,21564.3916378689,41821.3364320044,0.7188130545956299,-0.33015396258541413,0.0049,0.0112,0.018,-8.29611,0.222481,MH,0.41101277747559006,0,FALSE,FALSE,0.6644033861714064,-0.45130261677579564
PKO,TOON RIVER,910-855600-00000-00000-0000-0000-000-000-000-000-000-000,3,PKO-17,2005,0,132.596,4.887306911384243,15000,9.615805480084347,48237.3047714678,21564.3916378689,3.2158203180978537,1.1680824785176347,0.0038,0.0086,0.018,-8.29611,0.222481,MH,-0.8145696192436794,0,FALSE,FALSE,0.6644033861714064,-0.4855162299642891
PKO,TOON RIVER,910-855600-00000-00000-0000-0000-000-000-000-000-000-000,3,PKO-17,2007,0,132.596,4.887306911384243,30000,10.308952660644293,37324.6391161854,48237.3047714678,1.2441546372061798,0.21845629302741876,0.0019,0.0043,0.018,-8.29611,0.222481,MH,0.8768892458318005,0,FALSE,FALSE,0.6644033861714064,-0.5421002825452592
PKO,TOON RIVER,910-855600-00000-00000-0000-0000-000-000-000-000-000-000,3,PKO-17,2009,0,132.596,4.887306911384243,29300,10.285342795005159,5313.93977397233,37324.6391161854,0.18136313221748565,-1.7072540022136193,0.0016,0.0036,0.018,-8.29611,0.222481,MH,1.604652193542091,0,FALSE,FALSE,0.6644033861714064,-0.5513116399421613
PKO,TOON RIVER,910-855600-00000-00000-0000-0000-000-000-000-000-000-000,3,PKO-17,2011,0,132.596,4.887306911384243,4500,8.411832675758411,33101.4572477298,5313.93977397233,7.3558793883844,1.9954999102488167,0.0012,0.0026,0.018,-8.29611,0.222481,MH,0.7408851700104637,0,FALSE,FALSE,0.6644033861714064,-0.5644707219377357
PKO,ENSHESHESE RIVER,910-863100-00000-00000-0000-0000-000-000-000-000-000-000,3,PKO-17,1955,0,62.876,4.141164532865991,1500,7.313220387090301,7382.45689051211,2675.58739850206,4.9216379270080735,1.5936413870948258,0.0174,0.033,0.022,0.23128,0.173658,CWH,-0.07106879047729574,0,FALSE,FALSE,0.14150329336408823,-0.16443462927227337
PKO,ENSHESHESE RIVER,910-863100-00000-00000-0000-0000-000-000-000-000-000-000,3,PKO-17,1957,0,62.876,4.141164532865991,3500,8.160518247477505,7029.63318848557,7382.45689051211,2.0084666252815913,0.6973715579410728,0.0174,0.033,0.022,0.23128,0.173658,CWH,-0.3276691034772351,0,FALSE,FALSE,0.14150329336408823,-0.16443462927227337
PKO,ENSHESHESE RIVER,910-863100-00000-00000-0000-0000-000-000-000-000-000-000,3,PKO-17,1959,0,62.876,4.141164532865991,4000,8.294049640102028,5859.80208866685,7029.63318848557,1.4649505221667125,0.3818214686336584,0.0174,0.033,0.022,0.23128,0.173658,CWH,0.7824977620566573,0,FALSE,FALSE,0.14150329336408823,-0.16443462927227337
PKO,ENSHESHESE RIVER,910-863100-00000-00000-0000-0000-000-000-000-000-000-000,3,PKO-17,1961,0,62.876,4.141164532865991,3500,8.160518247477505,11577.5161220257,5859.80208866685,3.3078617491502,1.1963019834072637,0.0174,0.033,0.022,0.23128,0.173658,CWH,0.00583928468743269,0,FALSE,FALSE,0.14150329336408823,-0.16443462927227337
PKO,ENSHESHESE RIVER,910-863100-00000-00000-0000-0000-000-000-000-000-000-000,3,PKO-17,1963,0,62.876,4.141164532865991,9000,9.104979856318357,10833.2901024873,11577.5161220257,1.2036989002763667,0.18539923278376672,0.0118,0.0225,0.022,0.23128,0.173658,CWH,0.5797944041154652,0,FALSE,FALSE,0.14150329336408823,-0.3026049902258048
PKO,ENSHESHESE RIVER,910-863100-00000-00000-0000-0000-000-000-000-000-000-000,3,PKO-17,1965,0,62.876,4.141164532865991,6000,8.699514748210191,16006.0599857738,10833.2901024873,2.6676766642956333,0.9812079304152498,0.0118,0.0225,0.022,0.23128,0.173658,CWH,-0.7093794641235007,0,FALSE,FALSE,0.14150329336408823,-0.3026049902258048