Species,River,WATERSHED_CDE,DFO,CU,BroodYear,hararea_m2_3005,area_km2,ln_area_km2,Spawners,logS,Recruits,Returns,recruitPerSpawner,ln_RS,ECA_age_proxy,ECA_age_proxy_forested_only,lake_cover_pct,var_eaubc_KFACTOR,var_eaubc_MELTONS_R,vri_bec_zone,npgo,portion_reporting_vri_cover1_missing,hatchery_enhancement,year_of_enhacement,ln_area_km2_std,ECA_age_proxy_forested_only_std
PKO,MARMOT COVE CREEK,910-554200-00000-00000-0000-0000-000-000-000-000-000-000,6,PKO-13,1977,0,23.528,3.158191201251694,15,2.70805020110221,1261.77771074317,25.8239660597887,84.11851404954467,4.43222668602732,0.0037,0.0109,0.107,0.25843,0.255392,CWH,0.9724829797884954,0,FALSE,FALSE,-0.5473690467232953,-0.455250341374468
PKO,MARMOT COVE CREEK,910-554200-00000-00000-0000-0000-000-000-000-000-000-000,6,PKO-13,1979,0,23.528,3.158191201251694,750,6.620073206530356,1168.83412051681,1261.77771074317,1.5584454940224133,0.443688846256222,0.0026,0.0075,0.107,0.25843,0.255392,CWH,-1.19975713829789,0,FALSE,FALSE,-0.5473690467232953,-0.49999122015942105
PKO,MARMOT COVE CREEK,910-554200-00000-00000-0000-0000-000-000-000-000-000-000,6,PKO-13,1981,0,23.528,3.158191201251694,400,5.991464547107982,1718.77034460116,1168.83412051681,4.2969258615029,1.457899851095701,0.0026,0.0075,0.107,0.25843,0.255392,CWH,-0.22613906119882837,0,FALSE,FALSE,-0.5473690467232953,-0.49999122015942105
PKO,MARMOT COVE CREEK,910-554200-00000-00000-0000-0000-000-000-000-000-000-000,6,PKO-13,1983,0,23.528,3.158191201251694,1000,6.907755278982137,15468.0886942826,1718.77034460116,15.4680886942826,2.73877910777843,0.0026,0.0075,0.107,0.25843,0.255392,CWH,0.10267616261581472,0,FALSE,FALSE,-0.5473690467232953,-0.49999122015942105
PKO,MARMOT COVE CREEK,910-554200-00000-00000-0000-0000-000-000-000-000-000-000,6,PKO-13,1985,0,23.528,3.158191201251694,8500,9.047821442478408,1851.77747212339,15468.0886942826,0.21785617319098705,-1.5239201899324606,0.0026,0.0075,0.107,0.25843,0.255392,CWH,-0.9758993397997916,0,FALSE,FALSE,-0.5473690467232953,-0.49999122015942105
PKO,MARMOT COVE CREEK,910-554200-00000-00000-0000-0000-000-000-000-000-000-000,6,PKO-13,1987,0,23.528,3.158191201251694,900,6.802394763324311,10341.6439933535,1851.77747212339,11.490715548170556,2.441539365654471,0.001,0.0028,0.107,0.25843,0.255392,CWH,0.8862048812919091,0,FALSE,FALSE,-0.5473690467232953,-0.5618389055386208
PKO,MARMOT COVE CREEK,910-554200-00000-00000-0000-0000-000-000-000-000-000-000,6,PKO-13,1989,0,23.528,3.158191201251694,9300,9.137769679141348,3162.46894023955,10341.6439933535,0.34005042368167204,-1.078661367421927,0.001,0.0028,0.107,0.25843,0.255392,CWH,0.15947767939610902,0,FALSE,FALSE,-0.5473690467232953,-0.5618389055386208
PKO,MARMOT COVE CREEK,910-554200-00000-00000-0000-0000-000-000-000-000-000-000,6,PKO-13,1991,0,23.528,3.158191201251694,2400,7.783224016336037,1926.11677572186,3162.46894023955,0.802548656550775,-0.21996279460004498,0.001,0.0028,0.107,0.25843,0.255392,CWH,-0.18487911555035336,0,FALSE,FALSE,-0.5473690467232953,-0.5618389055386208
PKO,MARMOT COVE CREEK,910-554200-00000-00000-0000-0000-000-000-000-000-000-000,6,PKO-13,1993,0,23.528,3.158191201251694,1800,7.495541943884256,1023.19645946376,1926.11677572186,0.5684424774798666,-0.5648551538838585,0.001,0.0028,0.107,0.25843,0.255392,CWH,-1.7567819796155162,0,FALSE,FALSE,-0.5473690467232953,-0.5618389055386208
PKO,MARMOT COVE CREEK,910-554200-00000-00000-0000-0000-000-000-000-000-000-000,6,PKO-13,1995,0,23.528,3.158191201251694,900,6.802394763324311,323.841264044165,1023.19645946376,0.35982362671573886,-1.0221412933744483,0.001,0.0028,0.107,0.25843,0.255392,CWH,-0.5672147431639023,0,FALSE,FALSE,-0.5473690467232953,-0.5618389055386208
PKO,MARMOT COVE CREEK,910-554200-00000-00000-0000-0000-000-000-000-000-000-000,6,PKO-13,1997,0,23.528,3.158191201251694,275,5.616771097666572,546.707073626111,323.841264044165,1.9880257222767672,0.6871420469216868,6e-4,0.0017,0.107,0.25843,0.255392,CWH,0.8907774948170872,0,FALSE,FALSE,-0.5473690467232953,-0.5763138957337526
PKO,MARMOT COVE CREEK,910-554200-00000-00000-0000-0000-000-000-000-000-000-000,6,PKO-13,2007,0,23.528,3.158191201251694,2500,7.824046010856292,3869.67690759548,3113.03540253812,1.547870763038192,0.43688028527291445,1e-4,3e-4,0.107,0.25843,0.255392,CWH,0.8768892458318005,0,FALSE,FALSE,-0.5473690467232953,-0.5947366105275568
PKO,MARMOT COVE CREEK,910-554200-00000-00000-0000-0000-000-000-000-000-000-000,6,PKO-13,2013,0,23.528,3.158191201251694,2350,7.762170607138205,280.267826625695,3073.11156555442,0.11926290494710426,-2.126424937483007,0,0,0.107,0.25843,0.255392,CWH,-0.5528640906240193,0,FALSE,FALSE,-0.5473690467232953,-0.5986843351262291
PKO,SCOW BAY CREEK,910-555800-00000-00000-0000-0000-000-000-000-000-000-000,6,PKO-13,1955,0,38.426,3.6487343138095096,3500,8.160518247477505,6201.3729527877,6697.41298435454,1.7718208436536287,0.572007743038591,0.0088,0.0186,0.068,-3.83961,0.240039,CWH,-0.07106879047729574,0,FALSE,FALSE,-0.20359412324038012,-0.353925410008545
PKO,SCOW BAY CREEK,910-555800-00000-00000-0000-0000-000-000-000-000-000-000,6,PKO-13,1957,320438.845806754,38.426,3.6487343138095096,3500,8.160518247477505,48135.9611720924,6201.3729527877,13.753131763454972,2.6212665627930654,0.0139,0.0296,0.068,-3.83961,0.240039,CWH,-0.3276691034772351,0,FALSE,FALSE,-0.20359412324038012,-0.2091755080572264
PKO,SCOW BAY CREEK,910-555800-00000-00000-0000-0000-000-000-000-000-000-000,6,PKO-13,1959,0,38.426,3.6487343138095096,35000,10.46310334047155,147699.783537302,48135.9611720924,4.2199938153514855,1.4398336624903265,0.0129,0.0274,0.068,-3.83961,0.240039,CWH,0.7824977620566573,0,FALSE,FALSE,-0.20359412324038012,-0.23812548844749012
PKO,SCOW BAY CREEK,910-555800-00000-00000-0000-0000-000-000-000-000-000-000,6,PKO-13,1961,0,38.426,3.6487343138095096,75000,11.225243392518447,68679.6702883687,147699.783537302,0.9157289371782493,-0.08803487821208408,0.0129,0.0274,0.068,-3.83961,0.240039,CWH,0.00583928468743269,0,FALSE,FALSE,-0.20359412324038012,-0.23812548844749012
PKO,SCOW BAY CREEK,910-555800-00000-00000-0000-0000-000-000-000-000-000-000,6,PKO-13,1963,0,38.426,3.6487343138095096,35000,10.46310334047155,45600.8928144083,68679.6702883687,1.302882651840237,0.26457923410259526,0.0129,0.0274,0.068,-3.83961,0.240039,CWH,0.5797944041154652,0,FALSE,FALSE,-0.20359412324038012,-0.23812548844749012
PKO,SCOW BAY CREEK,910-555800-00000-00000-0000-0000-000-000-000-000-000-000,6,PKO-13,1965,0,38.426,3.6487343138095096,15000,9.615805480084347,10912.1709983172,45600.8928144083,0.72747806655448,-0.31817142945698856,0.0129,0.0274,0.068,-3.83961,0.240039,CWH,-0.7093794641235007,0,FALSE,FALSE,-0.20359412324038012,-0.23812548844749012
PKO,SCOW BAY CREEK,910-555800-00000-00000-0000-0000-000-000-000-000-000-000,6,PKO-13,1967,104668.777677437,38.426,3.6487343138095096,7500,8.922658299524402,3506.95686020824,10912.1709983172,0.46759424802776534,-0.7601543505125655,0.0156,0.0332,0.068,-3.83961,0.240039,CWH,-0.48089809283299456,0,FALSE,FALSE,-0.20359412324038012,-0.1618028128731585
PKO,SCOW BAY CREEK,910-555800-00000-00000-0000-0000-000-000-000-000-000-000,6,PKO-13,1969,0,38.426,3.6487343138095096,3000,8.006367567650246,12934.5863201621,3506.95686020824,4.311528773387367,1.4612925450253078,0.0115,0.0246,0.068,-3.83961,0.240039,CWH,0.09673401232408343,0,FALSE,FALSE,-0.20359412324038012,-0.2749709180350985
PKO,SCOW BAY CREEK,910-555800-00000-00000-0000-0000-000-000-000-000-000-000,6,PKO-13,1971,0,38.426,3.6487343138095096,10000,9.210340371976184,8638.00396818846,12934.5863201621,0.8638003968188459,-0.1464135590682305,0.0115,0.0246,0.068,-3.83961,0.240039,CWH,-0.34080392906905344,0,FALSE,FALSE,-0.20359412324038012,-0.2749709180350985
PKO,SCOW BAY CREEK,910-555800-00000-00000-0000-0000-000-000-000-000-000-000,6,PKO-13,1973,0,38.426,3.6487343138095096,5000,8.517193191416238,10335.110325408,8638.00396818846,2.0670220650816002,0.7261089555732787,0.0115,0.0246,0.068,-3.83961,0.240039,CWH,-0.20355231452664888,0,FALSE,FALSE,-0.20359412324038012,-0.2749709180350985
PKO,SCOW BAY CREEK,910-555800-00000-00000-0000-0000-000-000-000-000-000-000,6,PKO-13,1975,0,38.426,3.6487343138095096,7200,8.881836305004146,6025.59208061735,10335.110325408,0.8368877889746319,-0.17806528083165038,0.0115,0.0246,0.068,-3.83961,0.240039,CWH,1.2286162579398736,0,FALSE,FALSE,-0.20359412324038012,-0.2749709180350985
PKO,SCOW BAY CREEK,910-555800-00000-00000-0000-0000-000-000-000-000-000-000,6,PKO-13,1977,0,38.426,3.6487343138095096,3500,8.160518247477505,25235.5542148635,6025.59208061735,7.210158347103857,1.97549091320602,0.0103,0.0219,0.068,-3.83961,0.240039,CWH,0.9724829797884954,0,FALSE,FALSE,-0.20359412324038012,-0.3105004394231494
PKO,SCOW BAY CREEK,910-555800-00000-00000-0000-0000-000-000-000-000-000-000,6,PKO-13,1979,0,38.426,3.6487343138095096,15000,9.615805480084347,14610.4265064602,25235.5542148635,0.9740284337640134,-0.026314782989508314,0.0054,0.0115,0.068,-3.83961,0.240039,CWH,-1.19975713829789,0,FALSE,FALSE,-0.20359412324038012,-0.4473548921771233
PKO,SCOW BAY CREEK,910-555800-00000-00000-0000-0000-000-000-000-000-000-000,6,PKO-13,1981,0,38.426,3.6487343138095096,5000,8.517193191416238,16328.3182737111,14610.4265064602,3.26566365474222,1.1834630053939457,0.0054,0.0115,0.068,-3.83961,0.240039,CWH,-0.22613906119882837,0,FALSE,FALSE,-0.20359412324038012,-0.4473548921771233
PKO,SCOW BAY CREEK,910-555800-00000-00000-0000-0000-000-000-000-000-000-000,6,PKO-13,1983,0,38.426,3.6487343138095096,9500,9.159047077588632,32755.9525290691,16328.3182737111,3.4479950030599054,1.2377929035718307,0.0054,0.0115,0.068,-3.83961,0.240039,CWH,0.10267616261581472,0,FALSE,FALSE,-0.20359412324038012,-0.4473548921771233
PKO,SCOW BAY CREEK,910-555800-00000-00000-0000-0000-000-000-000-000-000-000,6,PKO-13,1985,0,38.426,3.6487343138095096,18000,9.798127036878302,13579.7014622382,32755.9525290691,0.7544278590132333,-0.2817956196421479,0.0054,0.0115,0.068,-3.83961,0.240039,CWH,-0.9758993397997916,0,FALSE,FALSE,-0.20359412324038012,-0.4473548921771233
PKO,SCOW BAY CREEK,910-555800-00000-00000-0000-0000-000-000-000-000-000-000,6,PKO-13,1987,0,38.426,3.6487343138095096,6600,8.794824928014517,25576.1088007668,13579.7014622382,3.8751680001161817,1.3545890167342072,0.0051,0.0109,0.068,-3.83961,0.240039,CWH,0.8862048812919091,0,FALSE,FALSE,-0.20359412324038012,-0.455250341374468
PKO,SCOW BAY CREEK,910-555800-00000-00000-0000-0000-000-000-000-000-000-000,6,PKO-13,1989,0,38.426,3.6487343138095096,23000,10.043249494911286,7642.63327224559,25576.1088007668,0.33228840314111263,-1.1017520029933914,0.003,0.0063,0.068,-3.83961,0.240039,CWH,0.15947767939610902,0,FALSE,FALSE,-0.20359412324038012,-0.5157821185541103
PKO,SCOW BAY CREEK,910-555800-00000-00000-0000-0000-000-000-000-000-000-000,6,PKO-13,1991,0,38.426,3.6487343138095096,5800,8.66561319653451,11235.6811917109,7642.63327224559,1.9371864123639484,0.6612366174628445,0.003,0.0063,0.068,-3.83961,0.240039,CWH,-0.18487911555035336,0,FALSE,FALSE,-0.20359412324038012,-0.5157821185541103
PKO,SCOW BAY CREEK,910-555800-00000-00000-0000-0000-000-000-000-000-000-000,6,PKO-13,1993,0,38.426,3.6487343138095096,10500,9.259130536145614,9663.52211715773,11235.6811917109,0.9203354397293076,-0.08301706699112038,0.003,0.0063,0.068,-3.83961,0.240039,CWH,-1.7567819796155162,0,FALSE,FALSE,-0.20359412324038012,-0.5157821185541103
PKO,SCOW BAY CREEK,910-555800-00000-00000-0000-0000-000-000-000-000-000-000,6,PKO-13,1995,0,38.426,3.6487343138095096,8500,9.047821442478408,2944.01149131059,9663.52211715773,0.34635429309536353,-1.0602930593388247,0.003,0.0063,0.068,-3.83961,0.240039,CWH,-0.5672147431639023,0,FALSE,FALSE,-0.20359412324038012,-0.5157821185541103
PKO,SCOW BAY CREEK,910-555800-00000-00000-0000-0000-000-000-000-000-000-000,6,PKO-13,1997,0,38.426,3.6487343138095096,2500,7.824046010856292,6013.77780988722,2944.01149131059,2.4055111239548883,0.8777624065303365,0.003,0.0063,0.068,-3.83961,0.240039,CWH,0.8907774948170872,0,FALSE,FALSE,-0.20359412324038012,-0.5157821185541103
PKO,SCOW BAY CREEK,910-555800-00000-00000-0000-0000-000-000-000-000-000-000,6,PKO-13,1999,0,38.426,3.6487343138095096,5500,8.612503371220562,12282.3240051771,6013.77780988722,2.2331498191231094,0.8034130638107354,0.0011,0.0023,0.068,-3.83961,0.240039,CWH,1.6302835492491898,0,FALSE,FALSE,-0.20359412324038012,-0.5684184465364079
PKO,SCOW BAY CREEK,910-555800-00000-00000-0000-0000-000-000-000-000-000-000,6,PKO-13,2005,0,38.426,3.6487343138095096,15000,9.615805480084347,15565.1770126906,22382.6393945904,1.0376784675127066,0.036985975209226536,0.0011,0.0023,0.068,-3.83961,0.240039,CWH,-0.8145696192436794,0,FALSE,FALSE,-0.20359412324038012,-0.5684184465364079
PKO,SCOW BAY CREEK,910-555800-00000-00000-0000-0000-000-000-000-000-000-000,6,PKO-13,2007,0,38.426,3.6487343138095096,12500,9.433483923290392,14833.761479116,15565.1770126906,1.18670091832928,0.17117711953990833,0.0011,0.0023,0.068,-3.83961,0.240039,CWH,0.8768892458318005,0,FALSE,FALSE,-0.20359412324038012,-0.5684184465364079
PKO,SCOW BAY CREEK,910-555800-00000-00000-0000-0000-000-000-000-000-000-000,6,PKO-13,2009,0,38.426,3.6487343138095096,11500,9.350102314351341,3562.25894371841,14833.761479116,0.3097616472798618,-1.1719521569849576,1e-4,3e-4,0.068,-3.83961,0.240039,CWH,1.604652193542091,0,FALSE,FALSE,-0.20359412324038012,-0.5947366105275568
PKO,SCOW BAY CREEK,910-555800-00000-00000-0000-0000-000-000-000-000-000-000,6,PKO-13,2011,0,38.426,3.6487343138095096,3000,8.006367567650246,12423.2169671349,3562.25894371841,4.1410723223783,1.420954769365834,1e-4,3e-4,0.068,-3.83961,0.240039,CWH,0.7408851700104637,0,FALSE,FALSE,-0.20359412324038012,-0.5947366105275568
PKO,SCOW BAY CREEK,910-555800-00000-00000-0000-0000-000-000-000-000-000-000,6,PKO-13,2013,0,38.426,3.6487343138095096,9500,9.159047077588632,896.857045202223,12423.2169671349,0.09440600475812874,-2.360150598127755,1e-4,3e-4,0.068,-3.83961,0.240039,CWH,-0.5528640906240193,0,FALSE,FALSE,-0.20359412324038012,-0.5947366105275568
PKO,KLEKANE RIVER,910-556700-00000-00000-0000-0000-000-000-000-000-000-000,6,PKO-13,1955,0,93.756,4.540695662802608,3500,8.160518247477505,132.886563274022,6697.41298435454,0.03796758950686343,-3.271022390902605,0.0133,0.0226,0.038,-6.97591,0.237788,CWH,-0.07106879047729574,0,FALSE,FALSE,0.42149659080706287,-0.3012890820262473
PKO,KLEKANE RIVER,910-556700-00000-00000-0000-0000-000-000-000-000-000-000,6,PKO-13,1957,618538.573484537,93.756,4.540695662802608,75,4.31748811353631,550.125270538199,132.886563274022,7.335003607175986,1.9926579033706913,0.0198,0.0336,0.038,-6.97591,0.237788,CWH,-0.3276691034772351,0,FALSE,FALSE,0.42149659080706287,-0.15653918007492876
PKO,KLEKANE RIVER,910-556700-00000-00000-0000-0000-000-000-000-000-000-000,6,PKO-13,1959,0,93.756,4.540695662802608,400,5.991464547107982,6892.6565650741,550.125270538199,17.23164141268525,2.8467473108129537,0.0126,0.0214,0.038,-6.97591,0.237788,CWH,0.7824977620566573,0,FALSE,FALSE,0.42149659080706287,-0.31707998042093666
PKO,KLEKANE RIVER,910-556700-00000-00000-0000-0000-000-000-000-000-000-000,6,PKO-13,1961,0,93.756,4.540695662802608,3500,8.160518247477505,29434.1444093009,6892.6565650741,8.409755545514543,2.1293924064416556,0.0126,0.0214,0.038,-6.97591,0.237788,CWH,0.00583928468743269,0,FALSE,FALSE,0.42149659080706287,-0.31707998042093666
PKO,KLEKANE RIVER,910-556700-00000-00000-0000-0000-000-000-000-000-000-000,6,PKO-13,1963,0,93.756,4.540695662802608,15000,9.615805480084347,22800.4464072042,29434.1444093009,1.52002976048028,0.4187299139298558,0.0126,0.0214,0.038,-6.97591,0.237788,CWH,0.5797944041154652,0,FALSE,FALSE,0.42149659080706287,-0.31707998042093666
PKO,KLEKANE RIVER,910-556700-00000-00000-0000-0000-000-000-000-000-000-000,6,PKO-13,1969,0,93.756,4.540695662802608,250,5.521460917862246,1940.18794802432,292.246405017354,7.760751792097279,2.049079209927429,0.0112,0.0189,0.038,-6.97591,0.237788,CWH,0.09673401232408343,0,FALSE,FALSE,0.42149659080706287,-0.3499776854098727
PKO,KLEKANE RIVER,910-556700-00000-00000-0000-0000-000-000-000-000-000-000,6,PKO-13,1971,0,93.756,4.540695662802608,1500,7.313220387090301,863.800396818846,1940.18794802432,0.575866931212564,-0.5518786671763947,0.0112,0.0189,0.038,-6.97591,0.237788,CWH,-0.34080392906905344,0,FALSE,FALSE,0.42149659080706287,-0.3499776854098727
PKO,KLEKANE RIVER,910-556700-00000-00000-0000-0000-000-000-000-000-000-000,6,PKO-13,1973,0,93.756,4.540695662802608,500,6.214608098422191,10335.110325408,863.800396818846,20.670220650816002,3.0286940485673246,0.0112,0.0189,0.038,-6.97591,0.237788,CWH,-0.20355231452664888,0,FALSE,FALSE,0.42149659080706287,-0.3499776854098727
PKO,KLEKANE RIVER,910-556700-00000-00000-0000-0000-000-000-000-000-000-000,6,PKO-13,1975,0,93.756,4.540695662802608,7200,8.881836305004146,1377.2781898554,10335.110325408,0.19128863747991665,-1.653971800641224,0.0112,0.0189,0.038,-6.97591,0.237788,CWH,1.2286162579398736,0,FALSE,FALSE,0.42149659080706287,-0.3499776854098727
PKO,KLEKANE RIVER,910-556700-00000-00000-0000-0000-000-000-000-000-000-000,6,PKO-13,1977,0,93.756,4.540695662802608,800,6.684611727667927,4205.92570247724,1377.2781898554,5.257407128096549,1.6596379637875402,0.0112,0.0189,0.038,-6.97591,0.237788,CWH,0.9724829797884954,0,FALSE,FALSE,0.42149659080706287,-0.3499776854098727
PKO,KLEKANE RIVER,910-556700-00000-00000-0000-0000-000-000-000-000-000-000,6,PKO-13,1979,0,93.756,4.540695662802608,2500,7.824046010856292,1753.25118077522,4205.92570247724,0.7013004723100881,-0.3548188499615466,0.0049,0.0083,0.038,-6.97591,0.237788,CWH,-1.19975713829789,0,FALSE,FALSE,0.42149659080706287,-0.48946395456296143
PKO,KLEKANE RIVER,910-556700-00000-00000-0000-0000-000-000-000-000-000-000,6,PKO-13,1981,0,93.756,4.540695662802608,600,6.396929655216146,1718.77034460116,1753.25118077522,2.8646172410019335,1.0524347429875367,0.0049,0.0083,0.038,-6.97591,0.237788,CWH,-0.22613906119882837,0,FALSE,FALSE,0.42149659080706287,-0.48946395456296143
PKO,KLEKANE RIVER,910-556700-00000-00000-0000-0000-000-000-000-000-000-000,6,PKO-13,1983,0,93.756,4.540695662802608,1000,6.907755278982137,3821.52779505806,1718.77034460116,3.82152779505806,1.3406502890115382,0.0049,0.0083,0.038,-6.97591,0.237788,CWH,0.10267616261581472,0,FALSE,FALSE,0.42149659080706287,-0.48946395456296143
PKO,KLEKANE RIVER,910-556700-00000-00000-0000-0000-000-000-000-000-000-000,6,PKO-13,1985,0,93.756,4.540695662802608,2100,7.649692623711514,2057.53052458154,3821.52779505806,0.9797764402769237,-0.020430855507743078,0.0049,0.0083,0.038,-6.97591,0.237788,CWH,-0.9758993397997916,0,FALSE,FALSE,0.42149659080706287,-0.48946395456296143
PKO,KLEKANE RIVER,910-556700-00000-00000-0000-0000-000-000-000-000-000-000,6,PKO-13,1987,0,93.756,4.540695662802608,1000,6.907755278982137,5560.02365234062,2057.53052458154,5.56002365234062,1.7156023622715397,0.0049,0.0083,0.038,-6.97591,0.237788,CWH,0.8862048812919091,0,FALSE,FALSE,0.42149659080706287,-0.48946395456296143
PKO,KLEKANE RIVER,910-556700-00000-00000-0000-0000-000-000-000-000-000-000,6,PKO-13,1989,0,93.756,4.540695662802608,5000,8.517193191416238,1976.54308764972,5560.02365234062,0.395308617529944,-0.9280885089425521,0.0025,0.0042,0.038,-6.97591,0.237788,CWH,0.15947767939610902,0,FALSE,FALSE,0.42149659080706287,-0.5434161907448165
PKO,KLEKANE RIVER,910-556700-00000-00000-0000-0000-000-000-000-000-000-000,6,PKO-13,1991,0,93.756,4.540695662802608,1500,7.313220387090301,2675.16218850259,1976.54308764972,1.783441459001727,0.5785449016177292,0.0025,0.0042,0.038,-6.97591,0.237788,CWH,-0.18487911555035336,0,FALSE,FALSE,0.42149659080706287,-0.5434161907448165
PKO,KLEKANE RIVER,910-556700-00000-00000-0000-0000-000-000-000-000-000-000,6,PKO-13,1993,0,93.756,4.540695662802608,2500,7.824046010856292,2728.52389190336,2675.16218850259,1.091409556761344,0.08747003215583171,0.0025,0.0042,0.038,-6.97591,0.237788,CWH,-1.7567819796155162,0,FALSE,FALSE,0.42149659080706287,-0.5434161907448165