Species,River,WATERSHED_CDE,DFO,CU,BroodYear,hararea_m2_3005,area_km2,ln_area_km2,Spawners,logS,Recruits,Returns,recruitPerSpawner,ln_RS,ECA_age_proxy,ECA_age_proxy_forested_only,lake_cover_pct,var_eaubc_KFACTOR,var_eaubc_MELTONS_R,vri_bec_zone,npgo,portion_reporting_vri_cover1_missing,hatchery_enhancement,year_of_enhacement,ln_area_km2_std,ECA_age_proxy_forested_only_std
PKO,KISKOSH CREEK,910-721600-00000-00000-0000-0000-000-000-000-000-000-000,6,PKO-12,1983,0,22.239,3.1018475043426923,9000,9.104979856318357,20993.6448086882,13586.1347082647,2.3326272009653555,0.8469951864283571,0,0,0.084,0.22438,0.216876,CWH,0.10267616261581472,0,FALSE,FALSE,-0.5868549748665709,-0.5986843351262291
PKO,KISKOSH CREEK,910-721600-00000-00000-0000-0000-000-000-000-000-000-000,6,PKO-12,1985,0,22.239,3.1018475043426923,13000,9.472704636443673,21754.1357440087,20993.6448086882,1.6733950572314387,0.5148545311469236,0,0,0.084,0.22438,0.216876,CWH,-0.9758993397997916,0,FALSE,FALSE,-0.5868549748665709,-0.5986843351262291
PKO,KISKOSH CREEK,910-721600-00000-00000-0000-0000-000-000-000-000-000-000,6,PKO-12,1987,0,22.239,3.1018475043426923,12000,9.392661928770137,5365.52707446214,21754.1357440087,0.44712725620517835,-0.8049120353878902,0,0,0.084,0.22438,0.216876,CWH,0.8862048812919091,0,FALSE,FALSE,-0.5868549748665709,-0.5986843351262291
PKO,KISKOSH CREEK,910-721600-00000-00000-0000-0000-000-000-000-000-000-000,6,PKO-12,1989,0,22.239,3.1018475043426923,4500,8.411832675758411,14184.3435644096,5365.52707446214,3.152076347646578,1.1480613936713775,0,0,0.084,0.22438,0.216876,CWH,0.15947767939610902,0,FALSE,FALSE,-0.5868549748665709,-0.5986843351262291
PKO,KISKOSH CREEK,910-721600-00000-00000-0000-0000-000-000-000-000-000-000,6,PKO-12,1991,0,22.239,3.1018475043426923,10000,9.210340371976184,3753.60466162866,14184.3435644096,0.375360466162866,-0.979868471609054,0,0,0.084,0.22438,0.216876,CWH,-0.18487911555035336,0,FALSE,FALSE,-0.5868549748665709,-0.5986843351262291
PKO,KISKOSH CREEK,910-721600-00000-00000-0000-0000-000-000-000-000-000-000,6,PKO-12,1993,0,22.239,3.1018475043426923,3000,8.006367567650246,6058.91656970133,3753.60466162866,2.01963885656711,0.7029187115517026,0,0,0.084,0.22438,0.216876,CWH,-1.7567819796155162,0,FALSE,FALSE,-0.5868549748665709,-0.5986843351262291
PKO,KISKOSH CREEK,910-721600-00000-00000-0000-0000-000-000-000-000-000-000,6,PKO-12,1995,0,22.239,3.1018475043426923,5100,8.536995818712418,2287.63386151021,6058.91656970133,0.448555659119649,-0.8017225045819047,0,0,0.084,0.22438,0.216876,CWH,-0.5672147431639023,0,FALSE,FALSE,-0.5868549748665709,-0.5986843351262291
PKO,KISKOSH CREEK,910-721600-00000-00000-0000-0000-000-000-000-000-000-000,6,PKO-12,1997,0,22.239,3.1018475043426923,2000,7.600902459542082,3619.33530945497,2287.63386151021,1.8096676547274848,0.5931432122455608,0,0,0.084,0.22438,0.216876,CWH,0.8907774948170872,0,FALSE,FALSE,-0.5868549748665709,-0.5986843351262291
PKO,KISKOSH CREEK,910-721600-00000-00000-0000-0000-000-000-000-000-000-000,6,PKO-12,1999,0,22.239,3.1018475043426923,3200,8.070906088787819,25570.3616188668,3619.33530945497,7.990738005895874,2.078283121707417,0,0,0.084,0.22438,0.216876,CWH,1.6302835492491898,0,FALSE,FALSE,-0.5868549748665709,-0.5986843351262291
PKO,KISKOSH CREEK,910-721600-00000-00000-0000-0000-000-000-000-000-000-000,6,PKO-12,2001,0,22.239,3.1018475043426923,20000,9.903487552536127,4745.79869865054,25570.3616188668,0.237289934932527,-1.4384725313892759,0,0,0.084,0.22438,0.216876,CWH,1.9190067210816288,0,FALSE,FALSE,-0.5868549748665709,-0.5986843351262291
PKO,KISKOSH CREEK,910-721600-00000-00000-0000-0000-000-000-000-000-000-000,6,PKO-12,2003,0,22.239,3.1018475043426923,3800,8.242756345714477,6494.66571185589,4745.79869865054,1.70912255575155,0.5359801135292426,0,0,0.084,0.22438,0.216876,CWH,0.41101277747559006,0,FALSE,FALSE,-0.5868549748665709,-0.5986843351262291
PKO,KISKOSH CREEK,910-721600-00000-00000-0000-0000-000-000-000-000-000-000,6,PKO-12,2005,0,22.239,3.1018475043426923,5200,8.556413904569519,11650.9999360011,6494.66571185589,2.2405769107694424,0.8067333821574262,0,0,0.084,0.22438,0.216876,CWH,-0.8145696192436794,0,FALSE,FALSE,-0.5868549748665709,-0.5986843351262291
PKO,KISKOSH CREEK,910-721600-00000-00000-0000-0000-000-000-000-000-000-000,6,PKO-12,2007,0,22.239,3.1018475043426923,10000,9.210340371976184,15129.3710951217,11650.9999360011,1.51293710951217,0.4140528671955495,0,0,0.084,0.22438,0.216876,CWH,0.8768892458318005,0,FALSE,FALSE,-0.5868549748665709,-0.5986843351262291
PKO,KISKOSH CREEK,910-721600-00000-00000-0000-0000-000-000-000-000-000-000,6,PKO-12,2009,0,22.239,3.1018475043426923,13000,9.472704636443673,5470.89258728396,15129.3710951217,0.42083789132953536,-0.8655075756773212,0,0,0.084,0.22438,0.216876,CWH,1.604652193542091,0,FALSE,FALSE,-0.5868549748665709,-0.5986843351262291
PKO,KISKOSH CREEK,910-721600-00000-00000-0000-0000-000-000-000-000-000-000,6,PKO-12,2011,0,22.239,3.1018475043426923,4800,8.476371196895983,26959.3550595939,5470.89258728396,5.616532304082063,1.7257144457222346,0,0,0.084,0.22438,0.216876,CWH,0.7408851700104637,0,FALSE,FALSE,-0.5868549748665709,-0.5986843351262291
PKO,KISKOSH CREEK,910-721600-00000-00000-0000-0000-000-000-000-000-000-000,6,PKO-12,2013,0,22.239,3.1018475043426923,22300,10.01234195744821,285.108809422117,26959.3550595939,0.012785148404579238,-4.3594710625958175,0,0,0.084,0.22438,0.216876,CWH,-0.5528640906240193,0,FALSE,FALSE,-0.5868549748665709,-0.5986843351262291
PKO,MISSED CREEK,910-724000-00000-00000-0000-0000-000-000-000-000-000-000,6,PKO-12,1985,0,24.202,3.186435274375861,250,5.521460917862246,634.49562586692,403.723938628619,2.53798250346768,0.9313694754416721,9e-4,0.0012,0.148,0.22214,0.126849,CWH,-0.9758993397997916,0,FALSE,FALSE,-0.527575467263015,-0.5828934367315398
PKO,MISSED CREEK,910-724000-00000-00000-0000-0000-000-000-000-000-000-000,6,PKO-12,1987,0,24.202,3.186435274375861,350,5.857933154483459,119.233934988047,634.49562586692,0.3406683856801343,-1.0768457508715368,9e-4,0.0012,0.148,0.22214,0.126849,CWH,0.8862048812919091,0,FALSE,FALSE,-0.527575467263015,-0.5828934367315398
PKO,MISSED CREEK,910-724000-00000-00000-0000-0000-000-000-000-000-000-000,6,PKO-12,1989,0,24.202,3.186435274375861,100,4.605170185988092,709.217178220478,119.233934988047,7.09217178220478,1.9589916098877034,9e-4,0.0012,0.148,0.22214,0.126849,CWH,0.15947767939610902,0,FALSE,FALSE,-0.527575467263015,-0.5828934367315398
PKO,MISSED CREEK,910-724000-00000-00000-0000-0000-000-000-000-000-000-000,6,PKO-12,1991,0,24.202,3.186435274375861,500,6.214608098422191,312.800388469055,709.217178220478,0.62560077693811,-0.46904284784306327,9e-4,0.0012,0.148,0.22214,0.126849,CWH,-0.18487911555035336,0,FALSE,FALSE,-0.527575467263015,-0.5828934367315398
PKO,MISSED CREEK,910-724000-00000-00000-0000-0000-000-000-000-000-000-000,6,PKO-12,1993,0,24.202,3.186435274375861,250,5.521460917862246,95.0418285443346,312.800388469055,0.3801673141773384,-0.9671438226988326,8e-4,0.0012,0.148,0.22214,0.126849,CWH,-1.7567819796155162,0,FALSE,FALSE,-0.527575467263015,-0.5828934367315398
PKO,MISSED CREEK,910-724000-00000-00000-0000-0000-000-000-000-000-000-000,6,PKO-12,1995,0,24.202,3.186435274375861,80,4.382026634673881,114.38169307551,95.0418285443346,1.429771163443875,0.35751440590263545,8e-4,0.0012,0.148,0.22214,0.126849,CWH,-0.5672147431639023,0,FALSE,FALSE,-0.527575467263015,-0.5828934367315398
PKO,MISSED CREEK,910-724000-00000-00000-0000-0000-000-000-000-000-000-000,6,PKO-12,1997,0,24.202,3.186435274375861,100,4.605170185988092,452.416913681872,114.38169307551,4.5241691368187205,1.5094339441197178,8e-4,0.0012,0.148,0.22214,0.126849,CWH,0.8907774948170872,0,FALSE,FALSE,-0.527575467263015,-0.5828934367315398
PKO,MISSED CREEK,910-724000-00000-00000-0000-0000-000-000-000-000-000-000,6,PKO-12,1999,0,24.202,3.186435274375861,400,5.991464547107982,1022.81446475467,452.416913681872,2.557036161886675,0.9388488385190499,8e-4,0.0012,0.148,0.22214,0.126849,CWH,1.6302835492491898,0,FALSE,FALSE,-0.527575467263015,-0.5828934367315398
PKO,MISSED CREEK,910-724000-00000-00000-0000-0000-000-000-000-000-000-000,6,PKO-12,2005,0,24.202,3.186435274375861,1200,7.090076835776092,873.824995200079,1498.76901042828,0.7281874960000658,-0.3171967144949775,2e-4,2e-4,0.148,0.22214,0.126849,CWH,-0.8145696192436794,0,FALSE,FALSE,-0.527575467263015,-0.5960525187271143
PKO,MISSED CREEK,910-724000-00000-00000-0000-0000-000-000-000-000-000-000,6,PKO-12,2007,0,24.202,3.186435274375861,750,6.620073206530356,1163.79777654782,873.824995200079,1.5517303687304265,0.43937067517983663,2e-4,2e-4,0.148,0.22214,0.126849,CWH,0.8768892458318005,0,FALSE,FALSE,-0.527575467263015,-0.5960525187271143
PKO,GABION RIVER,910-728100-00000-00000-0000-0000-000-000-000-000-000-000,6,PKO-12,1955,0,18.914,2.9399023885933206,750,6.620073206530356,797.180852820808,1530.94773803503,1.0629078037610773,0.061008363482725904,0.007,0.0099,0.148,-2.57622,0.168802,CWH,-0.07106879047729574,0,FALSE,FALSE,-0.7003468746608228,-0.46840942337004243
PKO,GABION RIVER,910-728100-00000-00000-0000-0000-000-000-000-000-000-000,6,PKO-12,1957,0,18.914,2.9399023885933206,400,5.991464547107982,595.80250107523,797.180852820808,1.489506252688075,0.39844469100601093,0.007,0.0099,0.148,-2.57622,0.168802,CWH,-0.3276691034772351,0,FALSE,FALSE,-0.7003468746608228,-0.46840942337004243
PKO,GABION RIVER,910-728100-00000-00000-0000-0000-000-000-000-000-000-000,6,PKO-12,1959,0,18.914,2.9399023885933206,400,5.991464547107982,917.601300367671,595.80250107523,2.2940032509191775,0.8302984358461825,0.0063,0.0089,0.148,-2.57622,0.168802,CWH,0.7824977620566573,0,FALSE,FALSE,-0.7003468746608228,-0.48156850536561685
PKO,GABION RIVER,910-728100-00000-00000-0000-0000-000-000-000-000-000-000,6,PKO-12,1961,0,18.914,2.9399023885933206,400,5.991464547107982,360.921503555745,917.601300367671,0.9023037588893625,-0.10280405409280585,0.0063,0.0089,0.148,-2.57622,0.168802,CWH,0.00583928468743269,0,FALSE,FALSE,-0.7003468746608228,-0.48156850536561685
PKO,GABION RIVER,910-728100-00000-00000-0000-0000-000-000-000-000-000-000,6,PKO-12,1963,0,18.914,2.9399023885933206,200,5.298317366548036,484.057034581606,360.921503555745,2.42028517290803,0.8838853732706429,0.0107,0.015,0.148,-2.57622,0.168802,CWH,0.5797944041154652,0,FALSE,FALSE,-0.7003468746608228,-0.4012981051926129
PKO,GABION RIVER,910-728100-00000-00000-0000-0000-000-000-000-000-000-000,6,PKO-12,1965,0,18.914,2.9399023885933206,200,5.298317366548036,868.302546928475,484.057034581606,4.341512734642375,1.468222843749865,0.0107,0.015,0.148,-2.57622,0.168802,CWH,-0.7093794641235007,0,FALSE,FALSE,-0.7003468746608228,-0.4012981051926129
PKO,GABION RIVER,910-728100-00000-00000-0000-0000-000-000-000-000-000-000,6,PKO-12,1971,0,18.914,2.9399023885933206,1500,7.313220387090301,758.896206792204,2090.78221831595,0.505930804528136,-0.681355368990193,0.0201,0.0282,0.148,-2.57622,0.168802,CWH,-0.34080392906905344,0,FALSE,FALSE,-0.7003468746608228,-0.2275982228510306
PKO,GABION RIVER,910-728100-00000-00000-0000-0000-000-000-000-000-000-000,6,PKO-12,1973,0,18.914,2.9399023885933206,400,5.991464547107982,306.726984078219,758.896206792204,0.7668174601955475,-0.26550649786181557,0.0229,0.0321,0.148,-2.57622,0.168802,CWH,-0.20355231452664888,0,FALSE,FALSE,-0.7003468746608228,-0.1762778030682904
PKO,GABION RIVER,910-728100-00000-00000-0000-0000-000-000-000-000-000-000,6,PKO-12,1975,0,18.914,2.9399023885933206,200,5.298317366548036,1957.85918380927,306.726984078219,9.78929591904635,2.2812895355747944,0.0229,0.0321,0.148,-2.57622,0.168802,CWH,1.2286162579398736,0,FALSE,FALSE,-0.7003468746608228,-0.1762778030682904
PKO,GABION RIVER,910-728100-00000-00000-0000-0000-000-000-000-000-000-000,6,PKO-12,1977,0,18.914,2.9399023885933206,1000,6.907755278982137,1059.57780456357,1957.85918380927,1.05957780456357,0.05787053120088789,0.0229,0.0321,0.148,-2.57622,0.168802,CWH,0.9724829797884954,0,FALSE,FALSE,-0.7003468746608228,-0.1762778030682904
PKO,GABION RIVER,910-728100-00000-00000-0000-0000-000-000-000-000-000-000,6,PKO-12,1979,0,18.914,2.9399023885933206,700,6.551080335043404,4138.81293845239,1059.57780456357,5.912589912074843,1.7770839608186768,0.0205,0.0287,0.148,-2.57622,0.168802,CWH,-1.19975713829789,0,FALSE,FALSE,-0.7003468746608228,-0.2210186818532434
PKO,GABION RIVER,910-728100-00000-00000-0000-0000-000-000-000-000-000-000,6,PKO-12,1981,0,18.914,2.9399023885933206,2000,7.600902459542082,7547.85261570259,4138.81293845239,3.773926307851295,1.3281159204842015,0.0205,0.0287,0.148,-2.57622,0.168802,CWH,-0.22613906119882837,0,FALSE,FALSE,-0.7003468746608228,-0.2210186818532434
PKO,GABION RIVER,910-728100-00000-00000-0000-0000-000-000-000-000-000-000,6,PKO-12,1983,0,18.914,2.9399023885933206,5000,8.517193191416238,24223.4363177172,7547.85261570259,4.84468726354344,1.5778826949711515,0.0151,0.0212,0.148,-2.57622,0.168802,CWH,0.10267616261581472,0,FALSE,FALSE,-0.7003468746608228,-0.3197117968200515
PKO,GABION RIVER,910-728100-00000-00000-0000-0000-000-000-000-000-000-000,6,PKO-12,1985,0,18.914,2.9399023885933206,15000,9.615805480084347,8157.80090400326,24223.4363177172,0.5438533936002173,-0.6090755655054764,0.0151,0.0212,0.148,-2.57622,0.168802,CWH,-0.9758993397997916,0,FALSE,FALSE,-0.7003468746608228,-0.3197117968200515
PKO,GABION RIVER,910-728100-00000-00000-0000-0000-000-000-000-000-000-000,6,PKO-12,1987,0,18.914,2.9399023885933206,4500,8.411832675758411,2980.84837470119,8157.80090400326,0.6624107499335978,-0.4118694472782826,0.0151,0.0212,0.148,-2.57622,0.168802,CWH,0.8862048812919091,0,FALSE,FALSE,-0.7003468746608228,-0.3197117968200515
PKO,GABION RIVER,910-728100-00000-00000-0000-0000-000-000-000-000-000-000,6,PKO-12,1989,0,18.914,2.9399023885933206,2500,7.824046010856292,4255.30306932287,2980.84837470119,1.702121227729148,0.5318752542475581,0.0103,0.0145,0.148,-2.57622,0.168802,CWH,0.15947767939610902,0,FALSE,FALSE,-0.7003468746608228,-0.4078776461904001
PKO,GABION RIVER,910-728100-00000-00000-0000-0000-000-000-000-000-000-000,6,PKO-12,1997,0,18.914,2.9399023885933206,50,3.912023005428146,1922.77188314795,57.1908465377552,38.455437662959,3.649500107615985,0.0073,0.0102,0.148,-2.57622,0.168802,CWH,0.8907774948170872,0,FALSE,FALSE,-0.7003468746608228,-0.46446169877137006
PKO,GABION RIVER,910-728100-00000-00000-0000-0000-000-000-000-000-000-000,6,PKO-12,1999,0,18.914,2.9399023885933206,1700,7.438383530044307,3835.55424283001,1922.77188314795,2.2562083781353,0.8136856955650433,0.0073,0.0102,0.148,-2.57622,0.168802,CWH,1.6302835492491898,0,FALSE,FALSE,-0.7003468746608228,-0.46446169877137006
PKO,GABION RIVER,910-728100-00000-00000-0000-0000-000-000-000-000-000-000,6,PKO-12,2005,0,18.914,2.9399023885933206,2000,7.600902459542082,3145.76998272029,2497.9483507138,1.572884991360145,0.45291150720109796,0.0061,0.0085,0.148,-2.57622,0.168802,CWH,-0.8145696192436794,0,FALSE,FALSE,-0.7003468746608228,-0.4868321381638466
PKO,GABION RIVER,910-728100-00000-00000-0000-0000-000-000-000-000-000-000,6,PKO-12,2007,0,18.914,2.9399023885933206,2700,7.90100705199242,2909.49444136955,3145.76998272029,1.077590533840574,0.07472756159192745,0.0061,0.0085,0.148,-2.57622,0.168802,CWH,0.8768892458318005,0,FALSE,FALSE,-0.7003468746608228,-0.4868321381638466
PKO,GABION RIVER,910-728100-00000-00000-0000-0000-000-000-000-000-000-000,6,PKO-12,2009,0,18.914,2.9399023885933206,2500,7.824046010856292,1025.79236011574,2909.49444136955,0.410316944046296,-0.8908253836616135,0.0042,0.0058,0.148,-2.57622,0.168802,CWH,1.604652193542091,0,FALSE,FALSE,-0.7003468746608228,-0.5223616595518975
PKO,GABION RIVER,910-728100-00000-00000-0000-0000-000-000-000-000-000-000,6,PKO-12,2011,0,18.914,2.9399023885933206,900,6.802394763324311,1208.93968877103,1025.79236011574,1.3432663208567,0.2951042008278355,0.0042,0.0058,0.148,-2.57622,0.168802,CWH,0.7408851700104637,0,FALSE,FALSE,-0.7003468746608228,-0.5223616595518975
PKO,GABION RIVER,910-728100-00000-00000-0000-0000-000-000-000-000-000-000,6,PKO-12,2013,0,18.914,2.9399023885933206,1000,6.907755278982137,513.195856959811,1208.93968877103,0.513195856959811,-0.6670977192276245,0.0027,0.0038,0.148,-2.57622,0.168802,CWH,-0.5528640906240193,0,FALSE,FALSE,-0.7003468746608228,-0.5486798235430463
PKO,BELOWE CREEK,910-736000-00000-00000-0000-0000-000-000-000-000-000-000,5,PKO-12,1955,0,31.004,3.4341162284192652,3500,8.160518247477505,6975.33246218207,7144.42277749679,1.99295213205202,0.6896170229051001,0.0122,0.0228,0.132,0.22391,0.160474,CWH,-0.07106879047729574,0,FALSE,FALSE,-0.35399948822119054,-0.2986572656271324
PKO,BELOWE CREEK,910-736000-00000-00000-0000-0000-000-000-000-000-000-000,5,PKO-12,1957,0,31.004,3.4341162284192652,3500,8.160518247477505,5213.27188440826,6975.33246218207,1.4895062526880742,0.3984446910060105,0.0122,0.0228,0.132,0.22391,0.160474,CWH,-0.3276691034772351,0,FALSE,FALSE,-0.35399948822119054,-0.2986572656271324
PKO,BELOWE CREEK,910-736000-00000-00000-0000-0000-000-000-000-000-000-000,5,PKO-12,1959,0,31.004,3.4341162284192652,3500,8.160518247477505,8029.01137821713,5213.27188440826,2.29400325091918,0.8302984358461836,0.0117,0.0218,0.132,0.22391,0.160474,CWH,0.7824977620566573,0,FALSE,FALSE,-0.35399948822119054,-0.3118163476227069
PKO,BELOWE CREEK,910-736000-00000-00000-0000-0000-000-000-000-000-000-000,5,PKO-12,1961,0,31.004,3.4341162284192652,3500,8.160518247477505,721.843007111491,8029.01137821713,0.20624085917471172,-1.5787105739023823,0.0117,0.0218,0.132,0.22391,0.160474,CWH,0.00583928468743269,0,FALSE,FALSE,-0.35399948822119054,-0.3118163476227069
PKO,BELOWE CREEK,910-736000-00000-00000-0000-0000-000-000-000-000-000-000,5,PKO-12,1963,0,31.004,3.4341162284192652,400,5.991464547107982,968.114069163211,721.843007111491,2.4202851729080272,0.8838853732706418,0.0228,0.0426,0.132,0.22391,0.160474,CWH,0.5797944041154652,0,FALSE,FALSE,-0.35399948822119054,-0.038107442114759006
PKO,BELOWE CREEK,910-736000-00000-00000-0000-0000-000-000-000-000-000-000,5,PKO-12,1965,0,31.004,3.4341162284192652,400,5.991464547107982,868.302546928475,968.114069163211,2.1707563673211876,0.7750756631899196,0.0228,0.0426,0.132,0.22391,0.160474,CWH,-0.7093794641235007,0,FALSE,FALSE,-0.35399948822119054,-0.038107442114759006
PKO,BELOWE CREEK,910-736000-00000-00000-0000-0000-000-000-000-000-000-000,5,PKO-12,1967,0,31.004,3.4341162284192652,400,5.991464547107982,358.632285844636,868.302546928475,0.89658071461159,-0.10916695695946205,0.0228,0.0426,0.132,0.22391,0.160474,CWH,-0.48089809283299456,0,FALSE,FALSE,-0.35399948822119054,-0.038107442114759006
PKO,BELOWE CREEK,910-736000-00000-00000-0000-0000-000-000-000-000-000-000,5,PKO-12,1969,0,31.004,3.4341162284192652,200,5.298317366548036,10453.9110915797,358.632285844636,52.2695554578985,3.9564140879612593,0.0214,0.0398,0.132,0.22391,0.160474,CWH,0.09673401232408343,0,FALSE,FALSE,-0.35399948822119054,-0.07495287170236734
PKO,BELOWE CREEK,910-736000-00000-00000-0000-0000-000-000-000-000-000-000,5,PKO-12,1971,0,31.004,3.4341162284192652,7500,8.922658299524402,4743.10129245128,10453.9110915797,0.6324135056601706,-0.4582118176759822,0.0214,0.0398,0.132,0.22391,0.160474,CWH,-0.34080392906905344,0,FALSE,FALSE,-0.35399948822119054,-0.07495287170236734
PKO,BELOWE CREEK,910-736000-00000-00000-0000-0000-000-000-000-000-000-000,5,PKO-12,1973,0,31.004,3.4341162284192652,2500,7.824046010856292,4600.90476117329,4743.10129245128,1.8403619044693162,0.6099622394920855,0.0132,0.0247,0.132,0.22391,0.160474,CWH,-0.20355231452664888,0,FALSE,FALSE,-0.35399948822119054,-0.27365500983554103
PKO,BELOWE CREEK,910-736000-00000-00000-0000-0000-000-000-000-000-000-000,5,PKO-12,1975,0,31.004,3.4341162284192652,3000,8.006367567650246,978.929591904634,4600.90476117329,0.3263098639682113,-1.1199078460873622,0.0132,0.0247,0.132,0.22391,0.160474,CWH,1.2286162579398736,0,FALSE,FALSE,-0.35399948822119054,-0.27365500983554103