Species,River,WATERSHED_CDE,DFO,CU,BroodYear,hararea_m2_3005,area_km2,ln_area_km2,Spawners,logS,Recruits,Returns,recruitPerSpawner,ln_RS,ECA_age_proxy,ECA_age_proxy_forested_only,lake_cover_pct,var_eaubc_KFACTOR,var_eaubc_MELTONS_R,vri_bec_zone,npgo,portion_reporting_vri_cover1_missing,hatchery_enhancement,year_of_enhacement,ln_area_km2_std,ECA_age_proxy_forested_only_std
PKO,LAGOON CREEK,915-486500-05300-00000-0000-0000-000-000-000-000-000-000,7,PKO-12,1985,0,38.411,3.6483438769056598,430,6.063785208687608,135.963348400054,694.405174441225,0.31619383348849767,-1.1513998563308405,0.0034,0.0044,0.166,0.28049,0.131619,CWH,-0.9758993397997916,0,FALSE,FALSE,-0.20386774326135243,-0.5407843743457017
PKO,LAGOON CREEK,915-486500-05300-00000-0000-0000-000-000-000-000-000-000,7,PKO-12,1987,28241.0110132628,38.411,3.6483438769056598,75,4.31748811353631,596.169674940237,135.963348400054,7.94892899920316,2.073037202509716,0.0041,0.0053,0.166,0.28049,0.131619,CWH,0.8862048812919091,0,FALSE,FALSE,-0.20386774326135243,-0.5289412005496847
PKO,LAGOON CREEK,915-486500-05300-00000-0000-0000-000-000-000-000-000-000,7,PKO-12,1993,0,38.411,3.6483438769056598,250,5.521460917862246,356.406857041255,312.800388469055,1.42562742816502,0.3546120172834876,0.0051,0.0066,0.166,0.28049,0.131619,CWH,-1.7567819796155162,0,FALSE,FALSE,-0.20386774326135243,-0.511834393955438
PKO,LAGOON CREEK,915-486500-05300-00000-0000-0000-000-000-000-000-000-000,7,PKO-12,1995,0,38.411,3.6483438769056598,300,5.703782474656201,228.763386151021,356.406857041255,0.7625446205034033,-0.2710942535197343,0.0051,0.0066,0.166,0.28049,0.131619,CWH,-0.5672147431639023,0,FALSE,FALSE,-0.20386774326135243,-0.511834393955438
PKO,LAGOON CREEK,915-486500-05300-00000-0000-0000-000-000-000-000-000-000,7,PKO-12,1997,37840.8168930663,38.411,3.6483438769056598,200,5.298317366548036,1131.04228420468,228.763386151021,5.655211421023401,1.7325774954339275,0.0061,0.0079,0.166,0.28049,0.131619,CWH,0.8907774948170872,0,FALSE,FALSE,-0.20386774326135243,-0.49472758736119127
PKO,LAGOON CREEK,915-486500-05300-00000-0000-0000-000-000-000-000-000-000,7,PKO-12,1999,0,38.411,3.6483438769056598,1000,6.907755278982137,958.888560707503,1131.04228420468,0.958888560707503,-0.04198041449267642,0.0042,0.0054,0.166,0.28049,0.131619,CWH,1.6302835492491898,0,FALSE,FALSE,-0.20386774326135243,-0.5276252923501272
PKO,LAGOON CREEK,915-486500-05300-00000-0000-0000-000-000-000-000-000-000,7,PKO-12,2001,0,38.411,3.6483438769056598,750,6.620073206530356,624.447197190861,958.888560707503,0.832596262921148,-0.18320643267578865,0.0042,0.0054,0.166,0.28049,0.131619,CWH,1.9190067210816288,0,FALSE,FALSE,-0.20386774326135243,-0.5276252923501272
PKO,LAGOON CREEK,915-486500-05300-00000-0000-0000-000-000-000-000-000-000,7,PKO-12,2003,0,38.411,3.6483438769056598,500,6.214608098422191,1061.62804905337,624.447197190861,2.12325609810674,0.7529508057363746,0.0037,0.0048,0.166,0.28049,0.131619,CWH,0.41101277747559006,0,FALSE,FALSE,-0.20386774326135243,-0.535520741547472
PKO,LAGOON CREEK,915-486500-05300-00000-0000-0000-000-000-000-000-000-000,7,PKO-12,2005,0,38.411,3.6483438769056598,850,6.745236349484363,553.42249696005,1061.62804905337,0.6510852905412353,-0.4291146306989629,0.0037,0.0048,0.166,0.28049,0.131619,CWH,-0.8145696192436794,0,FALSE,FALSE,-0.20386774326135243,-0.535520741547472
PKO,LAGOON CREEK,915-486500-05300-00000-0000-0000-000-000-000-000-000-000,7,PKO-12,2007,0,38.411,3.6483438769056598,475,6.163314804034641,1512.93710951217,553.42249696005,3.1851307568677263,1.1584933421430454,0.0037,0.0048,0.166,0.28049,0.131619,CWH,0.8768892458318005,0,FALSE,FALSE,-0.20386774326135243,-0.535520741547472
PKO,WATSON BAY CREEK,915-486500-18900-00000-0000-0000-000-000-000-000-000-000,7,PKO-12,1955,0,3.871,1.3535128715955111,200,5.298317366548036,398.590426410404,408.252730142673,1.99295213205202,0.6896170229051001,0,0,0,0.27931,0.387525,CWH,-0.07106879047729574,0,FALSE,FALSE,-1.8120961192407155,-0.5986843351262291
PKO,WATSON BAY CREEK,915-486500-18900-00000-0000-0000-000-000-000-000-000-000,7,PKO-12,1957,0,3.871,1.3535128715955111,200,5.298317366548036,37.2376563172019,398.590426410404,0.18618828158600953,-1.680996850673824,0,0,0,0.27931,0.387525,CWH,-0.3276691034772351,0,FALSE,FALSE,-1.8120961192407155,-0.5986843351262291
PKO,WATSON BAY CREEK,915-486500-18900-00000-0000-0000-000-000-000-000-000-000,7,PKO-12,1969,0,3.871,1.3535128715955111,25,3.2188758248682006,2090.78221831595,44.8290357305795,83.631288732638,4.426417717206999,0.0258,0.0268,0,0.27931,0.387525,CWH,0.09673401232408343,0,FALSE,FALSE,-1.8120961192407155,-0.24602093764483476
PKO,WATSON BAY CREEK,915-486500-18900-00000-0000-0000-000-000-000-000-000-000,7,PKO-12,1971,0,3.871,1.3535128715955111,1500,7.313220387090301,189.724051698051,2090.78221831595,0.126482701132034,-2.0676497301100834,0.0258,0.0268,0,0.27931,0.387525,CWH,-0.34080392906905344,0,FALSE,FALSE,-1.8120961192407155,-0.24602093764483476
PKO,WATSON BAY CREEK,915-486500-18900-00000-0000-0000-000-000-000-000-000-000,7,PKO-12,1973,0,3.871,1.3535128715955111,100,4.605170185988092,383.408730097774,189.724051698051,3.8340873009777403,1.3439314145722854,0.0258,0.0268,0,0.27931,0.387525,CWH,-0.20355231452664888,0,FALSE,FALSE,-1.8120961192407155,-0.24602093764483476
PKO,WATSON BAY CREEK,915-486500-18900-00000-0000-0000-000-000-000-000-000-000,7,PKO-12,1975,0,3.871,1.3535128715955111,250,5.521460917862246,783.143673523708,383.408730097774,3.132574694094832,1.1418552523864296,0.0258,0.0268,0,0.27931,0.387525,CWH,1.2286162579398736,0,FALSE,FALSE,-1.8120961192407155,-0.24602093764483476
PKO,WATSON BAY CREEK,915-486500-18900-00000-0000-0000-000-000-000-000-000-000,7,PKO-12,1977,0,3.871,1.3535128715955111,400,5.991464547107982,529.788902281784,783.143673523708,1.32447225570446,0.28101408251509574,0.0258,0.0268,0,0.27931,0.387525,CWH,0.9724829797884954,0,FALSE,FALSE,-1.8120961192407155,-0.24602093764483476
PKO,WATSON BAY CREEK,915-486500-18900-00000-0000-0000-000-000-000-000-000-000,7,PKO-12,1979,0,3.871,1.3535128715955111,350,5.857933154483459,4138.81293845239,529.788902281784,11.825179824149686,2.470231141378622,0.0194,0.0201,0,0.27931,0.387525,CWH,-1.19975713829789,0,FALSE,FALSE,-1.8120961192407155,-0.3341867870151834
PKO,WATSON BAY CREEK,915-486500-18900-00000-0000-0000-000-000-000-000-000-000,7,PKO-12,1981,0,3.871,1.3535128715955111,2000,7.600902459542082,3773.92630785129,4138.81293845239,1.886963153925645,0.6349687399242548,0.0194,0.0201,0,0.27931,0.387525,CWH,-0.22613906119882837,0,FALSE,FALSE,-1.8120961192407155,-0.3341867870151834
PKO,WATSON BAY CREEK,915-486500-18900-00000-0000-0000-000-000-000-000-000-000,7,PKO-12,1983,0,3.871,1.3535128715955111,2500,7.824046010856292,637.883823033218,3773.92630785129,0.2551535292132872,-1.3658898396521308,0.0269,0.0279,0,0.27931,0.387525,CWH,0.10267616261581472,0,FALSE,FALSE,-1.8120961192407155,-0.2315459474497029
PKO,WATSON BAY CREEK,915-486500-18900-00000-0000-0000-000-000-000-000-000-000,7,PKO-12,1985,0,3.871,1.3535128715955111,395,5.978885764901122,45.3211161333515,637.883823033218,0.1147370028692443,-2.1651127012124602,0.0269,0.0279,0,0.27931,0.387525,CWH,-0.9758993397997916,0,FALSE,FALSE,-1.8120961192407155,-0.2315459474497029
PKO,WATSON BAY CREEK,915-486500-18900-00000-0000-0000-000-000-000-000-000-000,7,PKO-12,1987,0,3.871,1.3535128715955111,25,3.2188758248682006,29.8084837470119,45.3211161333515,1.192339349880476,0.17591721762383628,0.0269,0.0279,0,0.27931,0.387525,CWH,0.8862048812919091,0,FALSE,FALSE,-1.8120961192407155,-0.2315459474497029
PKO,WATSON BAY CREEK,915-486500-18900-00000-0000-0000-000-000-000-000-000-000,7,PKO-12,1989,0,3.871,1.3535128715955111,25,3.2188758248682006,70.9217178220478,29.8084837470119,2.8368687128819117,1.0427008780135483,0.014,0.0145,0,0.27931,0.387525,CWH,0.15947767939610902,0,FALSE,FALSE,-1.8120961192407155,-0.4078776461904001
PKO,BOTTLENECK CREEK,915-486500-30600-00000-0000-0000-000-000-000-000-000-000,7,PKO-12,1959,0,8.704,2.163782690113587,25,3.2188758248682006,172.050243818938,37.2376563172019,6.8820097527575195,1.9289107245142902,0.0012,0.0012,0.047,0.27357,0.182092,CWH,0.7824977620566573,0,FALSE,FALSE,-1.2442552144747006,-0.5828934367315398
PKO,BOTTLENECK CREEK,915-486500-30600-00000-0000-0000-000-000-000-000-000-000,7,PKO-12,1961,0,8.704,2.163782690113587,75,4.31748811353631,2706.91127666809,172.050243818938,36.09215035557453,3.5860754000211315,0.0012,0.0012,0.047,0.27357,0.182092,CWH,0.00583928468743269,0,FALSE,FALSE,-1.2442552144747006,-0.5828934367315398
PKO,BOTTLENECK CREEK,915-486500-30600-00000-0000-0000-000-000-000-000-000-000,7,PKO-12,1969,0,8.704,2.163782690113587,100,4.605170185988092,2090.78221831595,179.316142922318,20.9078221831595,3.040123356087109,4e-4,4e-4,0.047,0.27357,0.182092,CWH,0.09673401232408343,0,FALSE,FALSE,-1.2442552144747006,-0.5934207023279994
PKO,BOTTLENECK CREEK,915-486500-30600-00000-0000-0000-000-000-000-000-000-000,7,PKO-12,1971,0,8.704,2.163782690113587,1500,7.313220387090301,2276.68862037661,2090.78221831595,1.5177924135844065,0.4172569196779158,4e-4,4e-4,0.047,0.27357,0.182092,CWH,-0.34080392906905344,0,FALSE,FALSE,-1.2442552144747006,-0.5934207023279994
PKO,BOTTLENECK CREEK,915-486500-30600-00000-0000-0000-000-000-000-000-000-000,7,PKO-12,1973,0,8.704,2.163782690113587,1200,7.090076835776092,230.045238058665,2276.68862037661,0.1917043650488875,-1.651800858981703,0.0234,0.0245,0.047,0.27357,0.182092,CWH,-0.20355231452664888,0,FALSE,FALSE,-1.2442552144747006,-0.27628682623465595
PKO,BOTTLENECK CREEK,915-486500-30600-00000-0000-0000-000-000-000-000-000-000,7,PKO-12,1975,0,8.704,2.163782690113587,150,5.0106352940962555,489.464795952317,230.045238058665,3.2630986396821133,1.1826772469066837,0.0234,0.0245,0.047,0.27357,0.182092,CWH,1.2286162579398736,0,FALSE,FALSE,-1.2442552144747006,-0.27628682623465595
PKO,BOTTLENECK CREEK,915-486500-30600-00000-0000-0000-000-000-000-000-000-000,7,PKO-12,1977,83816.1247115491,8.704,2.163782690113587,250,5.521460917862246,378.420644486989,489.464795952317,1.513682577947956,0.4145454751396195,0.033,0.0346,0.047,0.27357,0.182092,CWH,0.9724829797884954,0,FALSE,FALSE,-1.2442552144747006,-0.14338009807935434
PKO,BOTTLENECK CREEK,915-486500-30600-00000-0000-0000-000-000-000-000-000-000,7,PKO-12,1979,0,8.704,2.163782690113587,250,5.521460917862246,6208.21940767859,378.420644486989,24.83287763071436,3.212168486108,0.033,0.0346,0.047,0.27357,0.182092,CWH,-1.19975713829789,0,FALSE,FALSE,-1.2442552144747006,-0.14338009807935434
PKO,BOTTLENECK CREEK,915-486500-30600-00000-0000-0000-000-000-000-000-000-000,7,PKO-12,1981,0,8.704,2.163782690113587,3000,8.006367567650246,3170.09809859509,6208.21940767859,1.0566993661983632,0.05515024467131456,0.033,0.0346,0.047,0.27357,0.182092,CWH,-0.22613906119882837,0,FALSE,FALSE,-1.2442552144747006,-0.14338009807935434
PKO,BOTTLENECK CREEK,915-486500-30600-00000-0000-0000-000-000-000-000-000-000,7,PKO-12,1983,0,8.704,2.163782690113587,2100,7.649692623711514,1421.10826397274,3170.09809859509,0.6767182209393999,-0.3905003099362222,0.0273,0.0286,0.047,0.27357,0.182092,CWH,0.10267616261581472,0,FALSE,FALSE,-1.2442552144747006,-0.22233459005280082
PKO,BOTTLENECK CREEK,915-486500-30600-00000-0000-0000-000-000-000-000-000-000,7,PKO-12,1985,0,8.704,2.163782690113587,880,6.779921907472252,36.2568929066812,1421.10826397274,0.04120101466668318,-3.1892923950978003,0.0273,0.0286,0.047,0.27357,0.182092,CWH,-0.9758993397997916,0,FALSE,FALSE,-1.2442552144747006,-0.22233459005280082
PKO,BOTTLENECK CREEK,915-486500-30600-00000-0000-0000-000-000-000-000-000-000,7,PKO-12,1991,0,8.704,2.163782690113587,75,4.31748811353631,2.50240310775244,106.382576733072,0.033365374770032534,-3.400236600259483,0.0315,0.033,0.047,0.27357,0.182092,CWH,-0.18487911555035336,0,FALSE,FALSE,-1.2442552144747006,-0.16443462927227337
PKO,BOTTLENECK CREEK,915-486500-30600-00000-0000-0000-000-000-000-000-000-000,7,PKO-12,1997,30733.6787969499,8.704,2.163782690113587,250,5.521460917862246,169.656342630702,285.954232688776,0.678625370522808,-0.38768604076616364,0.1489,0.1562,0.047,0.27357,0.182092,CWH,0.8907774948170872,0,FALSE,FALSE,-1.2442552144747006,1.456764272582495
PKO,JAMES BAY CREEK,915-488000-78700-00000-0000-0000-000-000-000-000-000-000,7,PKO-13,1955,0,21.72,3.0782334950657346,5500,8.612503371220562,1771.82084365363,10524.5061182714,0.32214924430066,-1.1327403491998336,0.0051,0.0058,0.018,0.09135,0.236968,CWH,-0.07106879047729574,0,FALSE,FALSE,-0.6034037837775393,-0.5223616595518975
PKO,JAMES BAY CREEK,915-488000-78700-00000-0000-0000-000-000-000-000-000-000,7,PKO-13,1957,37114.703860312,21.72,3.0782334950657346,1000,6.907755278982137,2750.62635269099,1771.82084365363,2.75062635269099,1.0118286503589635,0.0068,0.0078,0.018,0.09135,0.236968,CWH,-0.3276691034772351,0,FALSE,FALSE,-0.6034037837775393,-0.49604349556074867
PKO,JAMES BAY CREEK,915-488000-78700-00000-0000-0000-000-000-000-000-000-000,7,PKO-13,1959,0,21.72,3.0782334950657346,2000,7.600902459542082,3938.66089432806,2750.62635269099,1.9693304471640298,0.6776936104434313,0.0067,0.0077,0.018,0.09135,0.236968,CWH,0.7824977620566573,0,FALSE,FALSE,-0.6034037837775393,-0.49735940376030613
PKO,JAMES BAY CREEK,915-488000-78700-00000-0000-0000-000-000-000-000-000-000,7,PKO-13,1961,0,21.72,3.0782334950657346,2000,7.600902459542082,15698.2103516271,3938.66089432806,7.84910517581355,2.0603995349547013,0.0067,0.0077,0.018,0.09135,0.236968,CWH,0.00583928468743269,0,FALSE,FALSE,-0.6034037837775393,-0.49735940376030613
PKO,JAMES BAY CREEK,915-488000-78700-00000-0000-0000-000-000-000-000-000-000,7,PKO-13,1963,0,21.72,3.0782334950657346,8000,8.987196820661973,9120.17856288166,15698.2103516271,1.1400223203602076,0.13104784147807277,0.0067,0.0077,0.018,0.09135,0.236968,CWH,0.5797944041154652,0,FALSE,FALSE,-0.6034037837775393,-0.49735940376030613
PKO,JAMES BAY CREEK,915-488000-78700-00000-0000-0000-000-000-000-000-000-000,7,PKO-13,1965,0,21.72,3.0782334950657346,3000,8.006367567650246,4364.86839932688,9120.17856288166,1.4549561331089598,0.37497575110295656,0.0067,0.0077,0.018,0.09135,0.236968,CWH,-0.7093794641235007,0,FALSE,FALSE,-0.6034037837775393,-0.49735940376030613
PKO,JAMES BAY CREEK,915-488000-78700-00000-0000-0000-000-000-000-000-000-000,7,PKO-13,1967,0,21.72,3.0782334950657346,3000,8.006367567650246,9351.88496055532,4364.86839932688,3.1172949868517734,1.1369656343733172,0.0067,0.0077,0.018,0.09135,0.236968,CWH,-0.48089809283299456,0,FALSE,FALSE,-0.6034037837775393,-0.49735940376030613
PKO,JAMES BAY CREEK,915-488000-78700-00000-0000-0000-000-000-000-000-000-000,7,PKO-13,1969,0,21.72,3.0782334950657346,8000,8.987196820661973,15521.5035841946,9351.88496055532,1.940187948024325,0.6627848488075412,0.0023,0.0026,0.018,0.09135,0.236968,CWH,0.09673401232408343,0,FALSE,FALSE,-0.6034037837775393,-0.5644707219377357
PKO,JAMES BAY CREEK,915-488000-78700-00000-0000-0000-000-000-000-000-000-000,7,PKO-13,1971,0,21.72,3.0782334950657346,12000,9.392661928770137,8638.00396818846,15521.5035841946,0.7198336640157049,-0.3287351158621851,0.0023,0.0026,0.018,0.09135,0.236968,CWH,-0.34080392906905344,0,FALSE,FALSE,-0.6034037837775393,-0.5644707219377357
PKO,JAMES BAY CREEK,915-488000-78700-00000-0000-0000-000-000-000-000-000-000,7,PKO-13,1973,0,21.72,3.0782334950657346,5000,8.517193191416238,7177.15994819997,8638.00396818846,1.435431989639994,0.36146584198536524,0.0023,0.0026,0.018,0.09135,0.236968,CWH,-0.20355231452664888,0,FALSE,FALSE,-0.6034037837775393,-0.5644707219377357
PKO,JAMES BAY CREEK,915-488000-78700-00000-0000-0000-000-000-000-000-000-000,7,PKO-13,1975,0,21.72,3.0782334950657346,5000,8.517193191416238,13772.781898554,7177.15994819997,2.7545563797108,1.013256405940731,0.0023,0.0026,0.018,0.09135,0.236968,CWH,1.2286162579398736,0,FALSE,FALSE,-0.6034037837775393,-0.5644707219377357
PKO,JAMES BAY CREEK,915-488000-78700-00000-0000-0000-000-000-000-000-000-000,7,PKO-13,1977,0,21.72,3.0782334950657346,8000,8.987196820661973,13458.9622479272,13772.781898554,1.6823702809909,0.5202036805991781,0.0023,0.0026,0.018,0.09135,0.236968,CWH,0.9724829797884954,0,FALSE,FALSE,-0.6034037837775393,-0.5644707219377357
PKO,JAMES BAY CREEK,915-488000-78700-00000-0000-0000-000-000-000-000-000-000,7,PKO-13,1979,0,21.72,3.0782334950657346,8000,8.987196820661973,7597.4217833593,13458.9622479272,0.9496777229199125,-0.051632590973798784,4e-4,5e-4,0.018,0.09135,0.236968,CWH,-1.19975713829789,0,FALSE,FALSE,-0.6034037837775393,-0.592104794128442
PKO,JAMES BAY CREEK,915-488000-78700-00000-0000-0000-000-000-000-000-000-000,7,PKO-13,1981,0,21.72,3.0782334950657346,2600,7.8632667240095735,15468.9331014105,7597.4217833593,5.949589654388654,1.7833222515303329,4e-4,5e-4,0.018,0.09135,0.236968,CWH,-0.22613906119882837,0,FALSE,FALSE,-0.6034037837775393,-0.592104794128442
PKO,JAMES BAY CREEK,915-488000-78700-00000-0000-0000-000-000-000-000-000-000,7,PKO-13,1983,0,21.72,3.0782334950657346,9000,9.104979856318357,16377.9762645345,15468.9331014105,1.8197751405038334,0.5987129442821582,4e-4,5e-4,0.018,0.09135,0.236968,CWH,0.10267616261581472,0,FALSE,FALSE,-0.6034037837775393,-0.592104794128442
PKO,JAMES BAY CREEK,915-488000-78700-00000-0000-0000-000-000-000-000-000-000,7,PKO-13,1985,0,21.72,3.0782334950657346,9000,9.104979856318357,2469.03662949785,16377.9762645345,0.27433740327753886,-1.2933965313206297,4e-4,5e-4,0.018,0.09135,0.236968,CWH,-0.9758993397997916,0,FALSE,FALSE,-0.6034037837775393,-0.592104794128442
PKO,JAMES BAY CREEK,915-488000-78700-00000-0000-0000-000-000-000-000-000-000,7,PKO-13,1987,0,21.72,3.0782334950657346,1200,7.090076835776092,16680.0709570219,2469.03662949785,13.900059130851584,2.6318930941456973,4e-4,5e-4,0.018,0.09135,0.236968,CWH,0.8862048812919091,0,FALSE,FALSE,-0.6034037837775393,-0.592104794128442
PKO,JAMES BAY CREEK,915-488000-78700-00000-0000-0000-000-000-000-000-000-000,7,PKO-13,1989,0,21.72,3.0782334950657346,15000,9.615805480084347,23718.5170517967,16680.0709570219,1.58123447011978,0.45820585217734106,4e-4,5e-4,0.018,0.09135,0.236968,CWH,0.15947767939610902,0,FALSE,FALSE,-0.6034037837775393,-0.592104794128442
PKO,JAMES BAY CREEK,915-488000-78700-00000-0000-0000-000-000-000-000-000-000,7,PKO-13,1991,0,21.72,3.0782334950657346,18000,9.798127036878302,16050.9731310155,23718.5170517967,0.8917207295008611,-0.11460227894221868,4e-4,5e-4,0.018,0.09135,0.236968,CWH,-0.18487911555035336,0,FALSE,FALSE,-0.6034037837775393,-0.592104794128442
PKO,JAMES BAY CREEK,915-488000-78700-00000-0000-0000-000-000-000-000-000-000,7,PKO-13,1993,2510.64706820619,21.72,3.0782334950657346,15000,9.615805480084347,17053.274324396,16050.9731310155,1.1368849549597333,0.1282920266760868,5e-4,6e-4,0.018,0.09135,0.236968,CWH,-1.7567819796155162,0,FALSE,FALSE,-0.6034037837775393,-0.5907888859288845
PKO,JAMES BAY CREEK,915-488000-78700-00000-0000-0000-000-000-000-000-000-000,7,PKO-13,1995,0,21.72,3.0782334950657346,15000,9.615805480084347,35328.1378957271,17053.274324396,2.3552091930484735,0.8566295528432369,5e-4,6e-4,0.018,0.09135,0.236968,CWH,-0.5672147431639023,0,FALSE,FALSE,-0.6034037837775393,-0.5907888859288845
PKO,JAMES BAY CREEK,915-488000-78700-00000-0000-0000-000-000-000-000-000-000,7,PKO-13,1997,0,21.72,3.0782334950657346,30000,10.308952660644293,21868.2829450444,35328.1378957271,0.7289427648348134,-0.31616006194209983,5e-4,6e-4,0.018,0.09135,0.236968,CWH,0.8907774948170872,0,FALSE,FALSE,-0.6034037837775393,-0.5907888859288845
PKO,JAMES BAY CREEK,915-488000-78700-00000-0000-0000-000-000-000-000-000-000,7,PKO-13,1999,0,21.72,3.0782334950657346,20000,9.903487552536127,72329.2413638207,21868.2829450444,3.6164620681910353,1.2854962187110721,2e-4,2e-4,0.018,0.09135,0.236968,CWH,1.6302835492491898,0,FALSE,FALSE,-0.6034037837775393,-0.5960525187271143
PKO,JAMES BAY CREEK,915-488000-78700-00000-0000-0000-000-000-000-000-000-000,7,PKO-13,2001,0,21.72,3.0782334950657346,53000,10.87804719253426,51641.5740946695,72329.2413638207,0.974369322540934,-0.02596486595712027,2e-4,2e-4,0.018,0.09135,0.236968,CWH,1.9190067210816288,0,FALSE,FALSE,-0.6034037837775393,-0.5960525187271143