Species,River,WATERSHED_CDE,DFO,CU,BroodYear,hararea_m2_3005,area_km2,ln_area_km2,Spawners,logS,Recruits,Returns,recruitPerSpawner,ln_RS,ECA_age_proxy,ECA_age_proxy_forested_only,lake_cover_pct,var_eaubc_KFACTOR,var_eaubc_MELTONS_R,vri_bec_zone,npgo,portion_reporting_vri_cover1_missing,hatchery_enhancement,year_of_enhacement,ln_area_km2_std,ECA_age_proxy_forested_only_std
PKO,AHTA RIVER,900-640400-00000-00000-0000-0000-000-000-000-000-000-000,12,PKO-7,1975,0,65.144,4.1766002041648305,8000,8.987196820661973,19512.19512195122,11428.57142857143,2.4390243902439024,0.8915981192837835,0.0122,0.0216,0.025,-3.29397,0.303103,CWH,1.2286162579398736,0,FALSE,FALSE,0.1663367786938582,-0.31444816402182174
PKO,AHTA RIVER,900-640400-00000-00000-0000-0000-000-000-000-000-000-000,12,PKO-7,1977,0,65.144,4.1766002041648305,8000,8.987196820661973,69767.44186046511,19512.19512195122,8.720930232558139,2.1657259102768482,0.0114,0.0202,0.025,-3.29397,0.303103,CWH,0.9724829797884954,0,FALSE,FALSE,0.1663367786938582,-0.33287087881562594
PKO,AHTA RIVER,900-640400-00000-00000-0000-0000-000-000-000-000-000-000,12,PKO-7,1979,0,65.144,4.1766002041648305,30000,10.308952660644293,51724.13793103448,69767.44186046511,1.7241379310344827,0.5447271754416719,0.0101,0.0179,0.025,-3.29397,0.303103,CWH,-1.19975713829789,0,FALSE,FALSE,0.1663367786938582,-0.3631367674054471
PKO,AHTA RIVER,900-640400-00000-00000-0000-0000-000-000-000-000-000-000,12,PKO-7,1981,0,65.144,4.1766002041648305,30000,10.308952660644293,61403.50877192982,51724.13793103448,2.0467836257309937,0.7162695979807993,0.0101,0.0179,0.025,-3.29397,0.303103,CWH,-0.22613906119882837,0,FALSE,FALSE,0.1663367786938582,-0.3631367674054471
PKO,AHTA RIVER,900-640400-00000-00000-0000-0000-000-000-000-000-000-000,12,PKO-7,1983,0,65.144,4.1766002041648305,35000,10.46310334047155,56000,61403.50877192982,1.6,0.47000362924573563,0.0076,0.0134,0.025,-3.29397,0.303103,CWH,0.10267616261581472,0,FALSE,FALSE,0.1663367786938582,-0.42235263638553194
PKO,AHTA RIVER,900-640400-00000-00000-0000-0000-000-000-000-000-000-000,12,PKO-7,1985,0,65.144,4.1766002041648305,28000,10.239959789157341,2678.5714285714284,56000,0.09566326530612244,-2.3469209068140975,0.0076,0.0134,0.025,-3.29397,0.303103,CWH,-0.9758993397997916,0,FALSE,FALSE,0.1663367786938582,-0.42235263638553194
PKO,AHTA RIVER,900-640400-00000-00000-0000-0000-000-000-000-000-000-000,12,PKO-7,1987,0,65.144,4.1766002041648305,1500,7.313220387090301,15625.000000000002,2678.5714285714284,10.416666666666668,2.3434070875143007,0.0074,0.013,0.025,-3.29397,0.303103,CWH,0.8862048812919091,0,FALSE,FALSE,0.1663367786938582,-0.4276162691837618
PKO,AHTA RIVER,900-640400-00000-00000-0000-0000-000-000-000-000-000-000,12,PKO-7,1989,0,65.144,4.1766002041648305,5000,8.517193191416238,5769.230769230769,15625.000000000002,1.1538461538461537,0.14310084364067324,0.0028,0.005,0.025,-3.29397,0.303103,CWH,0.15947767939610902,0,FALSE,FALSE,0.1663367786938582,-0.5328889251483571
PKO,AHTA RIVER,900-640400-00000-00000-0000-0000-000-000-000-000-000-000,12,PKO-7,1991,0,65.144,4.1766002041648305,3000,8.006367567650246,10000,5769.230769230769,3.3333333333333335,1.2039728043259361,0.0028,0.005,0.025,-3.29397,0.303103,CWH,-0.18487911555035336,0,FALSE,FALSE,0.1663367786938582,-0.5328889251483571
PKO,AHTA RIVER,900-640400-00000-00000-0000-0000-000-000-000-000-000-000,12,PKO-7,1993,0,65.144,4.1766002041648305,5400,8.594154232552366,10740.74074074074,10000,1.9890260631001373,0.687645103405962,0.0027,0.0048,0.025,-3.29397,0.303103,CWH,-1.7567819796155162,0,FALSE,FALSE,0.1663367786938582,-0.535520741547472
PKO,AHTA RIVER,900-640400-00000-00000-0000-0000-000-000-000-000-000-000,12,PKO-7,1995,0,65.144,4.1766002041648305,5800,8.66561319653451,1615.3846153846152,10740.74074074074,0.27851458885941643,-1.2782848372904874,0.0027,0.0048,0.025,-3.29397,0.303103,CWH,-0.5672147431639023,0,FALSE,FALSE,0.1663367786938582,-0.535520741547472
PKO,AHTA RIVER,900-640400-00000-00000-0000-0000-000-000-000-000-000-000,12,PKO-7,1997,0,65.144,4.1766002041648305,1050,6.956545443151569,2121.212121212121,1615.3846153846152,2.02020202020202,0.7031975164134466,0.0027,0.0048,0.025,-3.29397,0.303103,CWH,0.8907774948170872,0,FALSE,FALSE,0.1663367786938582,-0.535520741547472
PKO,AHTA RIVER,900-640400-00000-00000-0000-0000-000-000-000-000-000-000,12,PKO-7,1999,0,65.144,4.1766002041648305,2100,7.649692623711514,23655.913978494624,2121.212121212121,11.264720942140297,2.421675801463774,0.0019,0.0033,0.025,-3.29397,0.303103,CWH,1.6302835492491898,0,FALSE,FALSE,0.1663367786938582,-0.5552593645408336
PKO,AHTA RIVER,900-640400-00000-00000-0000-0000-000-000-000-000-000-000,12,PKO-7,2001,0,65.144,4.1766002041648305,22000,9.998797732340453,1175.9493670886077,23655.913978494624,0.05345224395857308,-2.9289666600055444,0.0019,0.0033,0.025,-3.29397,0.303103,CWH,1.9190067210816288,0,FALSE,FALSE,0.1663367786938582,-0.5552593645408336
PKO,AHTA RIVER,900-640400-00000-00000-0000-0000-000-000-000-000-000-000,12,PKO-7,2003,0,65.144,4.1766002041648305,929,6.834108738813838,2808.421052631579,1175.9493670886077,3.0230581836723136,1.1062689626092266,8e-4,0.0015,0.025,-3.29397,0.303103,CWH,0.41101277747559006,0,FALSE,FALSE,0.1663367786938582,-0.5789457121328675
PKO,AHTA RIVER,900-640400-00000-00000-0000-0000-000-000-000-000-000-000,12,PKO-7,2005,0,65.144,4.1766002041648305,2668,7.889084407035514,9681.632653061224,2808.421052631579,3.6287978459749715,1.2889014215195118,8e-4,0.0015,0.025,-3.29397,0.303103,CWH,-0.8145696192436794,0,FALSE,FALSE,0.1663367786938582,-0.5789457121328675
PKO,AHTA RIVER,900-640400-00000-00000-0000-0000-000-000-000-000-000-000,12,PKO-7,2007,0,65.144,4.1766002041648305,9488,9.157783121237507,12774.468085106384,9681.632653061224,1.3463815435398803,0.2974206557938787,8e-4,0.0015,0.025,-3.29397,0.303103,CWH,0.8768892458318005,0,FALSE,FALSE,0.1663367786938582,-0.5789457121328675
PKO,AHTA RIVER,900-640400-00000-00000-0000-0000-000-000-000-000-000-000,12,PKO-7,2009,0,65.144,4.1766002041648305,12008,9.393328373313297,4741.176470588236,12774.468085106384,0.39483481600501635,-0.9292877888747941,0.0016,0.0029,0.025,-3.29397,0.303103,CWH,1.604652193542091,0,FALSE,FALSE,0.1663367786938582,-0.5605229973390633
PKO,AHTA RIVER,900-640400-00000-00000-0000-0000-000-000-000-000-000-000,12,PKO-7,2011,0,65.144,4.1766002041648305,3224,8.07837810362652,23721.50537634409,4741.176470588236,7.357787027402012,1.9957592119040797,0.0016,0.0029,0.025,-3.29397,0.303103,CWH,0.7408851700104637,0,FALSE,FALSE,0.1663367786938582,-0.5605229973390633
PKO,APPLE RIVER,900-469600-00000-00000-0000-0000-000-000-000-000-000-000,13,PKO-7,1959,0,195.964,5.277930968891092,25000,10.126631103850338,37500,59523.80952380952,1.5,0.4054651081081644,0.0588,0.1083,0.014,0.14044,0.199195,CWH,0.7824977620566573,0.0112593689974236,FALSE,FALSE,0.9381545653079308,0.82644424499448
PKO,APPLE RIVER,900-469600-00000-00000-0000-0000-000-000-000-000-000-000,13,PKO-7,1961,0,195.964,5.277930968891092,15000,9.615805480084347,51020.40816326531,37500,3.4013605442176873,1.2241755116434556,0.0588,0.1083,0.014,0.14044,0.199195,CWH,0.00583928468743269,0.0112593689974236,FALSE,FALSE,0.9381545653079308,0.82644424499448
PKO,APPLE RIVER,900-469600-00000-00000-0000-0000-000-000-000-000-000-000,13,PKO-7,1963,0,195.964,5.277930968891092,25000,10.126631103850338,56451.61290322581,51020.40816326531,2.2580645161290325,0.8145080375642129,0.0615,0.1133,0.014,0.14044,0.199195,CWH,0.5797944041154652,0.0112593689974236,FALSE,FALSE,0.9381545653079308,0.8922396549723521
PKO,APPLE RIVER,900-469600-00000-00000-0000-0000-000-000-000-000-000-000,13,PKO-7,1965,151604.693011437,195.964,5.277930968891092,35000,10.46310334047155,73.52941176470588,56451.61290322581,0.0021008403361344537,-6.16541785423142,0.0622,0.1145,0.014,0.14044,0.199195,CWH,-0.7093794641235007,0.0112593689974236,FALSE,FALSE,0.9381545653079308,0.9080305533670415
PKO,APPLE RIVER,900-469600-00000-00000-0000-0000-000-000-000-000-000-000,13,PKO-7,1967,5077936.73640678,195.964,5.277930968891092,25,3.2188758248682006,2238.805970149254,73.52941176470588,89.55223880597015,4.494822128819226,0.0883,0.1628,0.014,0.14044,0.199195,CWH,-0.48089809283299456,0.0112593689974236,FALSE,FALSE,0.9381545653079308,1.543614213753286
PKO,APPLE RIVER,900-469600-00000-00000-0000-0000-000-000-000-000-000-000,13,PKO-7,1969,0,195.964,5.277930968891092,1500,7.313220387090301,57377.04918032787,2238.805970149254,38.25136612021858,3.6441792751960294,0.0875,0.1613,0.014,0.14044,0.199195,CWH,0.09673401232408343,0.0112593689974236,FALSE,FALSE,0.9381545653079308,1.5238755907599244
PKO,APPLE RIVER,900-469600-00000-00000-0000-0000-000-000-000-000-000-000,13,PKO-7,1971,0,195.964,5.277930968891092,35000,10.46310334047155,90909.0909090909,57377.04918032787,2.597402597402597,0.9545119446943526,0.0875,0.1613,0.014,0.14044,0.199195,CWH,-0.34080392906905344,0.0112593689974236,FALSE,FALSE,0.9381545653079308,1.5238755907599244
PKO,APPLE RIVER,900-469600-00000-00000-0000-0000-000-000-000-000-000-000,13,PKO-7,1973,0,195.964,5.277930968891092,50000,10.819778284410283,50000,90909.0909090909,1,0,0.1018,0.1876,0.014,0.14044,0.199195,CWH,-0.20355231452664888,0.0112593689974236,FALSE,FALSE,0.9381545653079308,1.8699594472435315
PKO,APPLE RIVER,900-469600-00000-00000-0000-0000-000-000-000-000-000-000,13,PKO-7,1975,886383.306564239,195.964,5.277930968891092,35000,10.46310334047155,12195.121951219511,50000,0.3484320557491289,-1.0543120297715298,0.1071,0.1973,0.014,0.14044,0.199195,CWH,1.2286162579398736,0.0112593689974236,FALSE,FALSE,0.9381545653079308,1.9976025426006034
PKO,APPLE RIVER,900-469600-00000-00000-0000-0000-000-000-000-000-000-000,13,PKO-7,1977,5216414.79769529,195.964,5.277930968891092,5000,8.517193191416238,6976.744186046511,12195.121951219511,1.3953488372093021,0.33314444652853814,0.1345,0.2478,0.014,0.14044,0.199195,CWH,0.9724829797884954,0.0112593689974236,FALSE,FALSE,0.9381545653079308,2.662136183377111
PKO,APPLE RIVER,900-469600-00000-00000-0000-0000-000-000-000-000-000-000,13,PKO-7,1979,63692.3269039001,195.964,5.277930968891092,3000,8.006367567650246,8620.689655172413,6976.744186046511,2.8735632183908044,1.0555527992076628,0.1286,0.237,0.014,0.14044,0.199195,CWH,-1.19975713829789,0.0112593689974236,FALSE,FALSE,0.9381545653079308,2.5200180978249076
PKO,APPLE RIVER,900-469600-00000-00000-0000-0000-000-000-000-000-000-000,13,PKO-7,1981,0,195.964,5.277930968891092,5000,8.517193191416238,87719.29824561403,8620.689655172413,17.543859649122805,2.8647040111475865,0.1286,0.237,0.014,0.14044,0.199195,CWH,-0.22613906119882837,0.0112593689974236,FALSE,FALSE,0.9381545653079308,2.5200180978249076
PKO,APPLE RIVER,900-469600-00000-00000-0000-0000-000-000-000-000-000-000,13,PKO-7,1983,0,195.964,5.277930968891092,50000,10.819778284410283,3000,87719.29824561403,0.06,-2.8134107167600364,0.1054,0.1942,0.014,0.14044,0.199195,CWH,0.10267616261581472,0.0112593689974236,FALSE,FALSE,0.9381545653079308,1.9568093884143227
PKO,APPLE RIVER,900-469600-00000-00000-0000-0000-000-000-000-000-000-000,13,PKO-7,1985,0,195.964,5.277930968891092,1500,7.313220387090301,178.57142857142856,3000,0.11904761904761904,-2.128231705849268,0.1052,0.1938,0.014,0.14044,0.199195,CWH,-0.9758993397997916,0.0112593689974236,FALSE,FALSE,0.9381545653079308,1.951545755616093
PKO,APPLE RIVER,900-469600-00000-00000-0000-0000-000-000-000-000-000-000,13,PKO-7,1987,149280.122400829,195.964,5.277930968891092,100,4.605170185988092,46875.00000000001,178.57142857142856,468.75000000000006,6.15006957728462,0.1042,0.192,0.014,0.14044,0.199195,CWH,0.8862048812919091,0.0112593689974236,FALSE,FALSE,0.9381545653079308,1.927859408024059
PKO,APPLE RIVER,900-469600-00000-00000-0000-0000-000-000-000-000-000-000,13,PKO-7,1989,0,195.964,5.277930968891092,15000,9.615805480084347,19230.76923076923,46875.00000000001,1.282051282051282,0.24846135929849955,0.0841,0.155,0.014,0.14044,0.199195,CWH,0.15947767939610902,0.0112593689974236,FALSE,FALSE,0.9381545653079308,1.4409733741878055
PKO,APPLE RIVER,900-469600-00000-00000-0000-0000-000-000-000-000-000-000,13,PKO-7,1991,0,195.964,5.277930968891092,10000,9.210340371976184,14814.814814814814,19230.76923076923,1.4814814814814814,0.3930425881096072,0.084,0.1549,0.014,0.14044,0.199195,CWH,-0.18487911555035336,0.0112593689974236,FALSE,FALSE,0.9381545653079308,1.4396574659882482
PKO,APPLE RIVER,900-469600-00000-00000-0000-0000-000-000-000-000-000-000,13,PKO-7,1993,37118.3426663829,195.964,5.277930968891092,8000,8.987196820661973,925.925925925926,14814.814814814814,0.11574074074074074,-2.1564025828159643,0.0584,0.1075,0.014,0.14044,0.199195,CWH,-1.7567819796155162,0.0112593689974236,FALSE,FALSE,0.9381545653079308,0.8159169793980207
PKO,APPLE RIVER,900-469600-00000-00000-0000-0000-000-000-000-000-000-000,13,PKO-7,2001,186918.501172352,195.964,5.277930968891092,4747,8.465268118551318,216.45569620253164,5104.301075268818,0.04559841925479917,-3.0878822285275884,0.0492,0.0907,0.014,0.14044,0.199195,CWH,1.9190067210816288,0.0112593689974236,FALSE,FALSE,0.9381545653079308,0.5948444018723705
PKO,APPLE RIVER,900-469600-00000-00000-0000-0000-000-000-000-000-000-000,13,PKO-7,2003,0,195.964,5.277930968891092,171,5.14166355650266,63.15789473684211,216.45569620253164,0.36934441366574333,-0.9960256998930086,0.0396,0.0729,0.014,0.14044,0.199195,CWH,0.41101277747559006,0.0112593689974236,FALSE,FALSE,0.9381545653079308,0.36061274235114593
PKO,APPLE RIVER,900-469600-00000-00000-0000-0000-000-000-000-000-000-000,13,PKO-7,2005,0,195.964,5.277930968891092,60,4.0943445622221,22.448979591836736,63.15789473684211,0.3741496598639456,-0.9830994015462653,0.0395,0.0729,0.014,0.14044,0.199195,CWH,-0.8145696192436794,0.0112593689974236,FALSE,FALSE,0.9381545653079308,0.36061274235114593
PKO,APPLE RIVER,900-469600-00000-00000-0000-0000-000-000-000-000-000-000,13,PKO-7,2007,0,195.964,5.277930968891092,22,3.091042453358316,989.3617021276596,22.448979591836736,44.970986460348165,3.806017536507073,0.0392,0.0722,0.014,0.14044,0.199195,CWH,0.8768892458318005,0.0112593689974236,FALSE,FALSE,0.9381545653079308,0.3514013849542437
PKO,APPLE RIVER,900-469600-00000-00000-0000-0000-000-000-000-000-000-000,13,PKO-7,2009,0,195.964,5.277930968891092,930,6.835184586147301,1392.6470588235295,989.3617021276596,1.4974699557242253,0.4037769878507613,0.0332,0.0613,0.014,0.14044,0.199195,CWH,1.604652193542091,0.0112593689974236,FALSE,FALSE,0.9381545653079308,0.20796739120248262
PKO,BREM RIVER,900-357900-00000-00000-0000-0000-000-000-000-000-000-000,15,PKO-3,1959,52728.0059275505,243.969,5.497041168041443,4000,8.294049640102028,8750,9523.809523809525,2.1875,0.7827593392496325,0.0104,0.032,0.017,0.13769,0.223434,CMA,0.7824977620566573,4.0132519065578e-4,FALSE,FALSE,1.0917080247673385,-0.1775937112678478
PKO,BREM RIVER,900-357900-00000-00000-0000-0000-000-000-000-000-000-000,15,PKO-3,1961,0,243.969,5.497041168041443,3500,8.160518247477505,1530.6122448979593,8750,0.4373177842565598,-0.8270951530696841,0.009,0.0277,0.017,0.13769,0.223434,CMA,0.00583928468743269,4.0132519065578e-4,FALSE,FALSE,1.0917080247673385,-0.2341777638488178
PKO,BREM RIVER,900-357900-00000-00000-0000-0000-000-000-000-000-000-000,15,PKO-3,1963,0,243.969,5.497041168041443,750,6.620073206530356,5645.1612903225805,1530.6122448979593,7.526881720430107,2.0184808418901485,0.0089,0.0275,0.017,0.13769,0.223434,CMA,0.5797944041154652,4.0132519065578e-4,FALSE,FALSE,1.0917080247673385,-0.2368095802479327
PKO,BREM RIVER,900-357900-00000-00000-0000-0000-000-000-000-000-000-000,15,PKO-3,1965,38910.6136941929,243.969,5.497041168041443,3500,8.160518247477505,5882.352941176471,5645.1612903225805,1.6806722689075633,0.5191938734365075,0.0078,0.0241,0.017,0.13769,0.223434,CMA,-0.7093794641235007,4.0132519065578e-4,FALSE,FALSE,1.0917080247673385,-0.2815504590328857
PKO,BREM RIVER,900-357900-00000-00000-0000-0000-000-000-000-000-000-000,15,PKO-3,1967,0,243.969,5.497041168041443,2000,7.600902459542082,7462.68656716418,5882.352941176471,3.73134328358209,1.3167682984712805,0.0075,0.0233,0.017,0.13769,0.223434,CMA,-0.48089809283299456,4.0132519065578e-4,FALSE,FALSE,1.0917080247673385,-0.2920777246293452
PKO,BREM RIVER,900-357900-00000-00000-0000-0000-000-000-000-000-000-000,15,PKO-3,1969,496160.72319405,243.969,5.497041168041443,5000,8.517193191416238,9836.065573770493,7462.68656716418,1.9672131147540985,0.6766178786087348,0.0197,0.0608,0.017,0.13769,0.223434,CMA,0.09673401232408343,4.0132519065578e-4,FALSE,FALSE,1.0917080247673385,0.20138785020469538
PKO,BREM RIVER,900-357900-00000-00000-0000-0000-000-000-000-000-000-000,15,PKO-3,1971,720995.310035945,243.969,5.497041168041443,6000,8.699514748210191,10909.090909090908,9836.065573770493,1.8181818181818181,0.5978370007556204,0.0255,0.0787,0.017,0.13769,0.223434,CMA,-0.34080392906905344,4.0132519065578e-4,FALSE,FALSE,1.0917080247673385,0.4369354179254775
PKO,BREM RIVER,900-357900-00000-00000-0000-0000-000-000-000-000-000-000,15,PKO-3,1973,0,243.969,5.497041168041443,6000,8.699514748210191,1428.571428571429,10909.090909090908,0.23809523809523814,-1.4350845252893225,0.0268,0.0827,0.017,0.13769,0.223434,CMA,-0.20355231452664888,4.0132519065578e-4,FALSE,FALSE,1.0917080247673385,0.4895717459077751
PKO,BREM RIVER,900-357900-00000-00000-0000-0000-000-000-000-000-000-000,15,PKO-3,1975,0,243.969,5.497041168041443,1000,6.907755278982137,487.8048780487805,1428.571428571429,0.4878048780487805,-0.7178397931503169,0.0261,0.0807,0.017,0.13769,0.223434,CMA,1.2286162579398736,4.0132519065578e-4,FALSE,FALSE,1.0917080247673385,0.4632535819166262
PKO,BREM RIVER,900-357900-00000-00000-0000-0000-000-000-000-000-000-000,15,PKO-3,1977,0,243.969,5.497041168041443,200,5.298317366548036,1395.3488372093022,487.8048780487805,6.976744186046512,1.9425823589626385,0.0284,0.0876,0.017,0.13769,0.223434,CMA,0.9724829797884954,4.0132519065578e-4,FALSE,FALSE,1.0917080247673385,0.5540512476860897
PKO,BREM RIVER,900-357900-00000-00000-0000-0000-000-000-000-000-000-000,15,PKO-3,1979,0,243.969,5.497041168041443,600,6.396929655216146,103.44827586206895,1395.3488372093022,0.17241379310344826,-1.7578579175523736,0.0264,0.0815,0.017,0.13769,0.223434,CMA,-1.19975713829789,4.0132519065578e-4,FALSE,FALSE,1.0917080247673385,0.47378084751308586
PKO,BREM RIVER,900-357900-00000-00000-0000-0000-000-000-000-000-000-000,15,PKO-3,1981,0,243.969,5.497041168041443,60,4.0943445622221,87.71929824561403,103.44827586206895,1.461988304093567,0.37979736135958647,0.0244,0.0755,0.017,0.13769,0.223434,CMA,-0.22613906119882837,4.0132519065578e-4,FALSE,FALSE,1.0917080247673385,0.3948263555396393
PKO,BREM RIVER,900-357900-00000-00000-0000-0000-000-000-000-000-000-000,15,PKO-3,1995,0,243.969,5.497041168041443,144,4.969813299576001,9.090909090909092,400,0.06313131313131314,-2.7625383863862796,0.0155,0.048,0.017,0.13769,0.223434,CMA,-0.5672147431639023,4.0132519065578e-4,FALSE,FALSE,1.0917080247673385,0.032951600661342874
PKO,BREM RIVER,900-357900-00000-00000-0000-0000-000-000-000-000-000-000,15,PKO-3,1997,260499.580332964,243.969,5.497041168041443,4,1.3862943611198906,49.48453608247423,9.090909090909092,12.371134020618557,2.515365857272709,0.0163,0.0504,0.017,0.13769,0.223434,CMA,0.8907774948170872,4.0132519065578e-4,FALSE,FALSE,1.0917080247673385,0.06453339745072147
PKO,ENGLISHMAN RIVER,920-462800-00000-00000-0000-0000-000-000-000-000-000-000,14,PKO-3,1959,1798398.79977125,315.872,5.755337068235478,1,0,62.5,2.380952380952381,62.5,4.135166556742356,0.1299,0.1366,0.009,0.12847,0.172044,CWH,0.7824977620566573,0,TRUE,FALSE,1.2727230080623886,1.1988462654692362
PKO,ENGLISHMAN RIVER,920-462800-00000-00000-0000-0000-000-000-000-000-000-000,14,PKO-3,1961,0,315.872,5.755337068235478,25,3.2188758248682006,4.081632653061225,62.5,0.163265306122449,-1.8123787564307905,0.1236,0.13,0.009,0.12847,0.172044,CWH,0.00583928468743269,0,TRUE,FALSE,1.2727230080623886,1.1119963242984452