Species,River,WATERSHED_CDE,DFO,CU,BroodYear,hararea_m2_3005,area_km2,ln_area_km2,Spawners,logS,Recruits,Returns,recruitPerSpawner,ln_RS,ECA_age_proxy,ECA_age_proxy_forested_only,lake_cover_pct,var_eaubc_KFACTOR,var_eaubc_MELTONS_R,vri_bec_zone,npgo,portion_reporting_vri_cover1_missing,hatchery_enhancement,year_of_enhacement,ln_area_km2_std,ECA_age_proxy_forested_only_std
PKO,WAHOO CREEK,910-627400-01800-00000-0000-0000-000-000-000-000-000-000,6,PKO-13,1995,0,213.32,5.3627933857324015,500,6.214608098422191,471.041838609695,568.442477479867,0.94208367721939,-0.05966117903091747,5e-4,0.0013,0.007,0.19688,0.259352,MH,-0.5672147431639023,1.9587820096217e-4,FALSE,FALSE,0.9976265466880749,-0.5815775285319824
PKO,WAHOO CREEK,910-627400-01800-00000-0000-0000-000-000-000-000-000-000,6,PKO-13,1997,0,213.32,5.3627933857324015,400,5.991464547107982,1312.09697670267,471.041838609695,3.280242441756675,1.187917334834179,2e-4,5e-4,0.007,0.19688,0.259352,MH,0.8907774948170872,1.9587820096217e-4,FALSE,FALSE,0.9976265466880749,-0.592104794128442
PKO,WAHOO CREEK,910-627400-01800-00000-0000-0000-000-000-000-000-000-000,6,PKO-13,1999,0,213.32,5.3627933857324015,1200,7.090076835776092,818.82160034514,1312.09697670267,0.68235133362095,-0.3822106018470041,2e-4,5e-4,0.007,0.19688,0.259352,MH,1.6302835492491898,1.9587820096217e-4,FALSE,FALSE,0.9976265466880749,-0.592104794128442
PKO,WAHOO CREEK,910-627400-01800-00000-0000-0000-000-000-000-000-000-000,6,PKO-13,2001,0,213.32,5.3627933857324015,600,6.396929655216146,14754.7354556199,818.82160034514,24.591225759366502,3.202389702865627,2e-4,5e-4,0.007,0.19688,0.259352,MH,1.9190067210816288,1.9587820096217e-4,FALSE,FALSE,0.9976265466880749,-0.592104794128442
PKO,WAHOO CREEK,910-627400-01800-00000-0000-0000-000-000-000-000-000-000,6,PKO-13,2003,0,213.32,5.3627933857324015,10000,9.210340371976184,17906.1115156723,14754.7354556199,1.7906111515672298,0.5825569870368088,2e-4,5e-4,0.007,0.19688,0.259352,MH,0.41101277747559006,1.9587820096217e-4,FALSE,FALSE,0.9976265466880749,-0.592104794128442
PKO,WAHOO CREEK,910-627400-01800-00000-0000-0000-000-000-000-000-000-000,6,PKO-13,2005,0,213.32,5.3627933857324015,12000,9.392661928770137,3113.03540253812,17906.1115156723,0.25941961687817666,-1.349308385910664,2e-4,5e-4,0.007,0.19688,0.259352,MH,-0.8145696192436794,1.9587820096217e-4,FALSE,FALSE,0.9976265466880749,-0.592104794128442
PKO,WAHOO CREEK,910-627400-01800-00000-0000-0000-000-000-000-000-000-000,6,PKO-13,2007,0,213.32,5.3627933857324015,2500,7.824046010856292,21928.169143041,3113.03540253812,8.7712676572164,2.1714813406610185,1e-4,3e-4,0.007,0.19688,0.259352,MH,0.8768892458318005,1.9587820096217e-4,FALSE,FALSE,0.9976265466880749,-0.5947366105275568
PKO,WAHOO CREEK,910-627400-01800-00000-0000-0000-000-000-000-000-000-000,6,PKO-13,2009,0,213.32,5.3627933857324015,17000,9.740968623038354,1074.61478135505,21928.169143041,0.06321263419735587,-2.7612510896222937,1e-4,3e-4,0.007,0.19688,0.259352,MH,1.604652193542091,1.9587820096217e-4,FALSE,FALSE,0.9976265466880749,-0.5947366105275568
PKO,WAHOO CREEK,910-627400-01800-00000-0000-0000-000-000-000-000-000-000,6,PKO-13,2011,0,213.32,5.3627933857324015,905,6.807934943699926,4707.74537701954,1074.61478135505,5.201928593391757,1.6490294401717234,1e-4,3e-4,0.007,0.19688,0.259352,MH,0.7408851700104637,1.9587820096217e-4,FALSE,FALSE,0.9976265466880749,-0.5947366105275568
PKO,WAHOO CREEK,910-627400-01800-00000-0000-0000-000-000-000-000-000-000,6,PKO-13,2013,0,213.32,5.3627933857324015,3600,8.1886891244442,336.321391950834,4707.74537701954,0.09342260887523167,-2.3706218979950493,1e-4,3e-4,0.007,0.19688,0.259352,MH,-0.5528640906240193,1.9587820096217e-4,FALSE,FALSE,0.9976265466880749,-0.5947366105275568
PKO,BRIM RIVER,910-632400-00000-00000-0000-0000-000-000-000-000-000-000,6,PKO-13,1965,0,159.148,5.069834586888222,7500,8.922658299524402,1091.21709983172,22800.4464072042,0.145495613310896,-1.927609341891089,0.004,0.0114,0.005,0.18348,0.26508,MH,-0.7093794641235007,0,FALSE,FALSE,0.792319640774816,-0.4486708003766808
PKO,BRIM RIVER,910-632400-00000-00000-0000-0000-000-000-000-000-000-000,6,PKO-13,1971,0,159.148,5.069834586888222,400,5.991464547107982,691.040317455077,517.383452806485,1.7276007936376925,0.5467336214917152,0.0023,0.0064,0.005,0.18348,0.26508,MH,-0.34080392906905344,0,FALSE,FALSE,0.792319640774816,-0.5144662103545529
PKO,BRIM RIVER,910-632400-00000-00000-0000-0000-000-000-000-000-000-000,6,PKO-13,1981,18990.5598629382,159.148,5.069834586888222,600,6.396929655216146,1031.2622067607,1753.25118077522,1.7187703446011668,0.54160911922155,0.0016,0.0045,0.005,0.18348,0.26508,MH,-0.22613906119882837,0,FALSE,FALSE,0.792319640774816,-0.5394684661461443
PKO,BRIM RIVER,910-632400-00000-00000-0000-0000-000-000-000-000-000-000,6,PKO-13,1983,0,159.148,5.069834586888222,600,6.396929655216146,12738.4259835269,1031.2622067607,21.230709972544833,3.0554487171034674,0.0015,0.0043,0.005,0.18348,0.26508,MH,0.10267616261581472,0,FALSE,FALSE,0.792319640774816,-0.5421002825452592
PKO,BRIM RIVER,910-632400-00000-00000-0000-0000-000-000-000-000-000-000,6,PKO-13,1985,0,159.148,5.069834586888222,7000,8.85366542803745,30862.9578687231,12738.4259835269,4.408993981246157,1.4836465412685311,0.0015,0.0043,0.005,0.18348,0.26508,MH,-0.9758993397997916,0,FALSE,FALSE,0.792319640774816,-0.5421002825452592
PKO,BRIM RIVER,910-632400-00000-00000-0000-0000-000-000-000-000-000-000,6,PKO-13,1987,0,159.148,5.069834586888222,15000,9.615805480084347,38920.1655663843,30862.9578687231,2.59467770442562,0.953462310224642,7e-4,0.0019,0.005,0.18348,0.26508,MH,0.8862048812919091,0,FALSE,FALSE,0.792319640774816,-0.5736820793346378
PKO,BRIM RIVER,910-632400-00000-00000-0000-0000-000-000-000-000-000-000,6,PKO-13,1989,0,159.148,5.069834586888222,35000,10.46310334047155,11200.4108300151,38920.1655663843,0.3200117380004314,-1.1393976026097572,5e-4,0.0015,0.005,0.18348,0.26508,MH,0.15947767939610902,0,FALSE,FALSE,0.792319640774816,-0.5789457121328675
PKO,BRIM RIVER,910-632400-00000-00000-0000-0000-000-000-000-000-000-000,6,PKO-13,1991,0,159.148,5.069834586888222,8500,9.047821442478408,1605.09731310155,11200.4108300151,0.18883497801194707,-1.6668817775363705,5e-4,0.0015,0.005,0.18348,0.26508,MH,-0.18487911555035336,0,FALSE,FALSE,0.792319640774816,-0.5789457121328675
PKO,BRIM RIVER,910-632400-00000-00000-0000-0000-000-000-000-000-000-000,6,PKO-13,1993,0,159.148,5.069834586888222,1500,7.313220387090301,7958.19468471813,1605.09731310155,5.30546312314542,1.6687370676232354,5e-4,0.0014,0.005,0.18348,0.26508,MH,-1.7567819796155162,0,FALSE,FALSE,0.792319640774816,-0.580261620332425
PKO,BRIM RIVER,910-632400-00000-00000-0000-0000-000-000-000-000-000-000,6,PKO-13,1995,0,159.148,5.069834586888222,7000,8.85366542803745,1766.40689478636,7958.19468471813,0.2523438421123371,-1.3769626686638545,5e-4,0.0014,0.005,0.18348,0.26508,MH,-0.5672147431639023,0,FALSE,FALSE,0.792319640774816,-0.580261620332425
PKO,BRIM RIVER,910-632400-00000-00000-0000-0000-000-000-000-000-000-000,6,PKO-13,1997,0,159.148,5.069834586888222,1500,7.313220387090301,7107.19195713944,1766.40689478636,4.738127971426294,1.555642114959493,4e-4,0.0011,0.005,0.18348,0.26508,MH,0.8907774948170872,0,FALSE,FALSE,0.792319640774816,-0.5842093449310973
PKO,BRIM RIVER,910-632400-00000-00000-0000-0000-000-000-000-000-000-000,6,PKO-13,1999,0,159.148,5.069834586888222,6500,8.779557455883728,40941.080017257,7107.19195713944,6.298627694962615,1.8403317834735051,3e-4,0.001,0.005,0.18348,0.26508,MH,1.6302835492491898,0,FALSE,FALSE,0.792319640774816,-0.5855252531306547
PKO,BRIM RIVER,910-632400-00000-00000-0000-0000-000-000-000-000-000-000,6,PKO-13,2001,0,159.148,5.069834586888222,30000,10.308952660644293,32460.418002363702,40941.080017257,1.0820139334121235,0.0788240578017489,3e-4,0.001,0.005,0.18348,0.26508,MH,1.9190067210816288,0,FALSE,FALSE,0.792319640774816,-0.5855252531306547
PKO,BRIM RIVER,910-632400-00000-00000-0000-0000-000-000-000-000-000-000,6,PKO-13,2003,0,159.148,5.069834586888222,22000,9.998797732340453,149217.595963936,32460.418002363702,6.7826179983607275,1.914363162872631,3e-4,7e-4,0.005,0.18348,0.26508,MH,0.41101277747559006,0,FALSE,FALSE,0.792319640774816,-0.589472977729327
PKO,BRIM RIVER,910-632400-00000-00000-0000-0000-000-000-000-000-000-000,6,PKO-13,2005,0,159.148,5.069834586888222,100000,11.512925464970229,119540.559457464,149217.595963936,1.19540559457464,0.17848553748292767,3e-4,7e-4,0.005,0.18348,0.26508,MH,-0.8145696192436794,0,FALSE,FALSE,0.792319640774816,-0.589472977729327
PKO,BRIM RIVER,910-632400-00000-00000-0000-0000-000-000-000-000-000-000,6,PKO-13,2007,0,159.148,5.069834586888222,96000,11.472103470449973,90292.4611772278,119540.559457464,0.940546470596123,-0.061294220939518154,1e-4,3e-4,0.005,0.18348,0.26508,MH,0.8768892458318005,0,FALSE,FALSE,0.792319640774816,-0.5947366105275568
PKO,BRIM RIVER,910-632400-00000-00000-0000-0000-000-000-000-000-000-000,6,PKO-13,2009,0,159.148,5.069834586888222,70000,11.156250521031495,8786.90539450541,90292.4611772278,0.12552721992150584,-2.075232652123098,1e-4,3e-4,0.005,0.18348,0.26508,MH,1.604652193542091,0,FALSE,FALSE,0.792319640774816,-0.5947366105275568
PKO,BRIM RIVER,910-632400-00000-00000-0000-0000-000-000-000-000-000-000,6,PKO-13,2011,0,159.148,5.069834586888222,7400,8.909235279192261,192625.24834305,8786.90539450541,26.03043896527703,3.2592665826859113,1e-4,3e-4,0.005,0.18348,0.26508,MH,0.7408851700104637,0,FALSE,FALSE,0.792319640774816,-0.5947366105275568
PKO,BRIM RIVER,910-632400-00000-00000-0000-0000-000-000-000-000-000-000,6,PKO-13,2013,0,159.148,5.069834586888222,147300,11.900226602450722,11883.3558489295,192625.24834305,0.08067451357046503,-2.5173325705576093,1e-4,2e-4,0.005,0.18348,0.26508,MH,-0.5528640906240193,0,FALSE,FALSE,0.792319640774816,-0.5960525187271143
PKO,HOTSPRING CREEK,910-637900-00000-00000-0000-0000-000-000-000-000-000-000,6,PKO-13,1961,0,25.888,3.2537795408760815,750,6.620073206530356,1471.70722046504,1476.99783537302,1.9622762939533869,0.6741051738348104,0.0281,0.0548,0,0.23332,0.15788,CWH,0.00583928468743269,1.74876570733231e-6,FALSE,FALSE,-0.4803802881432639,0.12243335823124891
PKO,HOTSPRING CREEK,910-637900-00000-00000-0000-0000-000-000-000-000-000-000,6,PKO-13,1963,0,25.888,3.2537795408760815,750,6.620073206530356,1216.02380838422,1471.70722046504,1.6213650778456268,0.4832684350674238,0.0281,0.0548,0,0.23332,0.15788,CWH,0.5797944041154652,1.74876570733231e-6,FALSE,FALSE,-0.4803802881432639,0.12243335823124891
PKO,HOTSPRING CREEK,910-637900-00000-00000-0000-0000-000-000-000-000-000-000,6,PKO-13,1981,0,25.888,3.2537795408760815,250,5.521460917862246,601.569620610408,730.521325323009,2.4062784824416323,0.8780813558427625,0.1031,0.2012,0,0.23332,0.15788,CWH,-0.22613906119882837,1.74876570733231e-6,FALSE,FALSE,-0.4803802881432639,2.0489229623833434
PKO,HOTSPRING CREEK,910-637900-00000-00000-0000-0000-000-000-000-000-000-000,6,PKO-13,1983,0,25.888,3.2537795408760815,350,5.857933154483459,1182.85384132749,601.569620610408,3.3795824037928286,1.21775215268838,0.1004,0.1958,0,0.23332,0.15788,CWH,0.10267616261581472,1.74876570733231e-6,FALSE,FALSE,-0.4803802881432639,1.9778639196072418
PKO,HOTSPRING CREEK,910-637900-00000-00000-0000-0000-000-000-000-000-000-000,6,PKO-13,1985,0,25.888,3.2537795408760815,650,6.476972362889683,823.012209832617,1182.85384132749,1.2661726305117185,0.23599867343993478,0.1004,0.1958,0,0.23332,0.15788,CWH,-0.9758993397997916,1.74876570733231e-6,FALSE,FALSE,-0.4803802881432639,1.9778639196072418
PKO,HOTSPRING CREEK,910-637900-00000-00000-0000-0000-000-000-000-000-000-000,6,PKO-13,1987,0,25.888,3.2537795408760815,400,5.991464547107982,222.400946093625,823.012209832617,0.5560023652340625,-0.5869827307225048,0.1004,0.1958,0,0.23332,0.15788,CWH,0.8862048812919091,1.74876570733231e-6,FALSE,FALSE,-0.4803802881432639,1.9778639196072418
PKO,HOTSPRING CREEK,910-637900-00000-00000-0000-0000-000-000-000-000-000-000,6,PKO-13,1989,0,25.888,3.2537795408760815,200,5.298317366548036,197.654308764972,222.400946093625,0.98827154382486,-0.011797777068397016,0.0588,0.1148,0,0.23332,0.15788,CWH,0.15947767939610902,1.74876570733231e-6,FALSE,FALSE,-0.4803802881432639,0.9119782779657137
PKO,HOTSPRING CREEK,910-637900-00000-00000-0000-0000-000-000-000-000-000-000,6,PKO-13,1991,0,25.888,3.2537795408760815,150,5.0106352940962555,21.4012975080207,197.654308764972,0.142675316720138,-1.9471837426905272,0.0588,0.1148,0,0.23332,0.15788,CWH,-0.18487911555035336,1.74876570733231e-6,FALSE,FALSE,-0.4803802881432639,0.9119782779657137
PKO,HOTSPRING CREEK,910-637900-00000-00000-0000-0000-000-000-000-000-000-000,6,PKO-13,1993,0,25.888,3.2537795408760815,20,2.995732273553991,147.795044144765,21.4012975080207,7.38975220723825,2.000094203577676,0.0533,0.104,0,0.23332,0.15788,CWH,-1.7567819796155162,1.74876570733231e-6,FALSE,FALSE,-0.4803802881432639,0.7698601924135101
PKO,HOTSPRING CREEK,910-637900-00000-00000-0000-0000-000-000-000-000-000-000,6,PKO-13,1995,0,25.888,3.2537795408760815,130,4.867534450455582,141.312551582909,147.795044144765,1.0870196275608386,0.08343966460975949,0.0533,0.104,0,0.23332,0.15788,CWH,-0.5672147431639023,1.74876570733231e-6,FALSE,FALSE,-0.4803802881432639,0.7698601924135101
PKO,HOTSPRING CREEK,910-637900-00000-00000-0000-0000-000-000-000-000-000-000,6,PKO-13,1997,0,25.888,3.2537795408760815,120,4.787491742782046,656.048488351333,141.312551582909,5.467070736261109,1.6987429586001666,0.0533,0.104,0,0.23332,0.15788,CWH,0.8907774948170872,1.74876570733231e-6,FALSE,FALSE,-0.4803802881432639,0.7698601924135101
PKO,HOTSPRING CREEK,910-637900-00000-00000-0000-0000-000-000-000-000-000-000,6,PKO-13,1999,0,25.888,3.2537795408760815,600,6.396929655216146,1364.7026672419,656.048488351333,2.2745044454031667,0.8217622024789318,0.0293,0.0572,0,0.23332,0.15788,CWH,1.6302835492491898,1.74876570733231e-6,FALSE,FALSE,-0.4803802881432639,0.15401515502062751
PKO,HOTSPRING CREEK,910-637900-00000-00000-0000-0000-000-000-000-000-000-000,6,PKO-13,2001,0,25.888,3.2537795408760815,1000,6.907755278982137,4131.32592757356,1364.7026672419,4.13132592757356,1.418598403286746,0.0293,0.0572,0,0.23332,0.15788,CWH,1.9190067210816288,1.74876570733231e-6,FALSE,FALSE,-0.4803802881432639,0.15401515502062751
PKO,HOTSPRING CREEK,910-637900-00000-00000-0000-0000-000-000-000-000-000-000,6,PKO-13,2003,0,25.888,3.2537795408760815,2800,7.937374696163295,3282.7871112066,4131.32592757356,1.1724239682880715,0.15907337342596983,0.0293,0.0572,0,0.23332,0.15788,CWH,0.41101277747559006,1.74876570733231e-6,FALSE,FALSE,-0.4803802881432639,0.15401515502062751
PKO,HOTSPRING CREEK,910-637900-00000-00000-0000-0000-000-000-000-000-000-000,6,PKO-13,2005,0,25.888,3.2537795408760815,2200,7.696212639346407,435.824956355337,3282.7871112066,0.19810225288878955,-1.6189719528597661,0.0293,0.0572,0,0.23332,0.15788,CWH,-0.8145696192436794,1.74876570733231e-6,FALSE,FALSE,-0.4803802881432639,0.15401515502062751
PKO,HOTSPRING CREEK,910-637900-00000-00000-0000-0000-000-000-000-000-000-000,6,PKO-13,2007,0,25.888,3.2537795408760815,350,5.857933154483459,2708.77383531683,435.824956355337,7.739353815190944,2.046318197707013,0.0293,0.0572,0,0.23332,0.15788,CWH,0.8768892458318005,1.74876570733231e-6,FALSE,FALSE,-0.4803802881432639,0.15401515502062751
PKO,HOTSPRING CREEK,910-637900-00000-00000-0000-0000-000-000-000-000-000-000,6,PKO-13,2009,0,25.888,3.2537795408760815,2100,7.649692623711514,201.861340144043,2708.77383531683,0.09612444768763952,-2.342111596945117,0.0153,0.0299,0,0.23332,0.15788,CWH,1.604652193542091,1.74876570733231e-6,FALSE,FALSE,-0.4803802881432639,-0.20522778345855408
PKO,HOTSPRING CREEK,910-637900-00000-00000-0000-0000-000-000-000-000-000-000,6,PKO-13,2011,0,25.888,3.2537795408760815,170,5.135798437050262,6930.8473606121,201.861340144043,40.769690356541766,3.7079389219173997,0.0153,0.0299,0,0.23332,0.15788,CWH,0.7408851700104637,1.74876570733231e-6,FALSE,FALSE,-0.4803802881432639,-0.20522778345855408
PKO,HOTSPRING CREEK,910-637900-00000-00000-0000-0000-000-000-000-000-000-000,6,PKO-13,2013,0,25.888,3.2537795408760815,5300,8.575462099540212,313.899965820778,6930.8473606121,0.05922640864542981,-2.826387744578014,0.0131,0.0256,0,0.23332,0.15788,CWH,-0.5528640906240193,1.74876570733231e-6,FALSE,FALSE,-0.4803802881432639,-0.26181183603952407
PKO,CRAB RIVER,910-644700-00000-00000-0000-0000-000-000-000-000-000-000,6,PKO-13,1961,0,137.55,4.923987487370583,25,3.2188758248682006,49.0569073488348,49.2332611791007,1.962276293953392,0.6741051738348129,0.0046,0.0082,0.055,0.23379,0.178483,CWH,0.00583928468743269,8.16894247546666e-5,FALSE,FALSE,0.6901093065690291,-0.49077986276251895
PKO,CRAB RIVER,910-644700-00000-00000-0000-0000-000-000-000-000-000-000,6,PKO-13,1963,0,137.55,4.923987487370583,25,3.2188758248682006,608.011904192111,49.0569073488348,24.320476167684443,3.1913186361696355,0.0046,0.0082,0.055,0.23379,0.178483,CWH,0.5797944041154652,8.16894247546666e-5,FALSE,FALSE,0.6901093065690291,-0.49077986276251895
PKO,CRAB RIVER,910-644700-00000-00000-0000-0000-000-000-000-000-000-000,6,PKO-13,1973,0,137.55,4.923987487370583,350,5.857933154483459,574.172795855997,604.660277773192,1.6404937024457058,0.4949972346098868,0.0034,0.0061,0.055,0.23379,0.178483,CWH,-0.20355231452664888,8.16894247546666e-5,FALSE,FALSE,0.6901093065690291,-0.5184139349532252
PKO,CRAB RIVER,910-644700-00000-00000-0000-0000-000-000-000-000-000-000,6,PKO-13,1975,0,137.55,4.923987487370583,400,5.991464547107982,516.479321195773,574.172795855997,1.2911983029894325,0.25557070424321066,0.0034,0.0061,0.055,0.23379,0.178483,CWH,1.2286162579398736,8.16894247546666e-5,FALSE,FALSE,0.6901093065690291,-0.5184139349532252
PKO,CRAB RIVER,910-644700-00000-00000-0000-0000-000-000-000-000-000-000,6,PKO-13,1977,0,137.55,4.923987487370583,300,5.703782474656201,4205.92570247724,516.479321195773,14.019752341590799,2.6404672167992667,0.0034,0.0061,0.055,0.23379,0.178483,CWH,0.9724829797884954,8.16894247546666e-5,FALSE,FALSE,0.6901093065690291,-0.5184139349532252
PKO,CRAB RIVER,910-644700-00000-00000-0000-0000-000-000-000-000-000-000,6,PKO-13,1979,0,137.55,4.923987487370583,2500,7.824046010856292,13149.3838558142,4205.92570247724,5.25975354232568,1.6600841705807219,0.0016,0.0028,0.055,0.23379,0.178483,CWH,-1.19975713829789,8.16894247546666e-5,FALSE,FALSE,0.6901093065690291,-0.5618389055386208
PKO,CRAB RIVER,910-644700-00000-00000-0000-0000-000-000-000-000-000-000,6,PKO-13,1981,0,137.55,4.923987487370583,4500,8.411832675758411,2578.15551690175,13149.3838558142,0.5729234482003889,-0.5570031694465598,0.0016,0.0028,0.055,0.23379,0.178483,CWH,-0.22613906119882837,8.16894247546666e-5,FALSE,FALSE,0.6901093065690291,-0.5618389055386208
PKO,CRAB RIVER,910-644700-00000-00000-0000-0000-000-000-000-000-000-000,6,PKO-13,1983,0,137.55,4.923987487370583,1500,7.313220387090301,5823.28044961228,2578.15551690175,3.8821869664081867,1.3563986459796769,0.0016,0.0028,0.055,0.23379,0.178483,CWH,0.10267616261581472,8.16894247546666e-5,FALSE,FALSE,0.6901093065690291,-0.5618389055386208
PKO,CRAB RIVER,910-644700-00000-00000-0000-0000-000-000-000-000-000-000,6,PKO-13,1985,0,137.55,4.923987487370583,3200,8.070906088787819,6172.59157374463,5823.28044961228,1.9289348667951969,0.6569679680840648,0.0016,0.0028,0.055,0.23379,0.178483,CWH,-0.9758993397997916,8.16894247546666e-5,FALSE,FALSE,0.6901093065690291,-0.5618389055386208
PKO,CRAB RIVER,910-644700-00000-00000-0000-0000-000-000-000-000-000-000,6,PKO-13,1987,0,137.55,4.923987487370583,3000,8.006367567650246,2780.01182617031,6172.59157374463,0.9266706087234367,-0.0761571069565152,0.0016,0.0028,0.055,0.23379,0.178483,CWH,0.8862048812919091,8.16894247546666e-5,FALSE,FALSE,0.6901093065690291,-0.5618389055386208
PKO,CRAB RIVER,910-644700-00000-00000-0000-0000-000-000-000-000-000-000,6,PKO-13,1989,206794.412340882,137.55,4.923987487370583,2500,7.824046010856292,3294.2384794162,2780.01182617031,1.31769539176648,0.2758842953833839,0.0024,0.0042,0.055,0.23379,0.178483,CWH,0.15947767939610902,8.16894247546666e-5,FALSE,FALSE,0.6901093065690291,-0.5434161907448165