Species,River,WATERSHED_CDE,DFO,CU,BroodYear,hararea_m2_3005,area_km2,ln_area_km2,Spawners,logS,Recruits,Returns,recruitPerSpawner,ln_RS,ECA_age_proxy,ECA_age_proxy_forested_only,lake_cover_pct,var_eaubc_KFACTOR,var_eaubc_MELTONS_R,vri_bec_zone,npgo,portion_reporting_vri_cover1_missing,hatchery_enhancement,year_of_enhacement,ln_area_km2_std,ECA_age_proxy_forested_only_std
PKO,LITTLE CREEK,915-488300-92500-00000-0000-0000-000-000-000-000-000-000,6,PKO-12,1977,0,26.435,3.2746888896874133,25,3.2188758248682006,302.736515589591,48.9464795952317,12.10946062358364,2.493987016819455,0.0068,0.0087,0.083,0.29706,0.076139,CWH,0.9724829797884954,0,FALSE,FALSE,-0.4657269180241472,-0.4842003217647317
PKO,LITTLE CREEK,915-488300-92500-00000-0000-0000-000-000-000-000-000-000,6,PKO-12,1979,0,26.435,3.2746888896874133,200,5.298317366548036,2069.4064692262,302.736515589591,10.347032346131,2.336699748754102,0.0065,0.0084,0.083,0.29706,0.076139,CWH,-1.19975713829789,0,FALSE,FALSE,-0.4657269180241472,-0.4881480463634041
PKO,LITTLE CREEK,915-488300-92500-00000-0000-0000-000-000-000-000-000-000,6,PKO-12,1981,0,26.435,3.2746888896874133,1000,6.907755278982137,1207.65641851241,2069.4064692262,1.2076564185124101,0.18868163729583304,0.0065,0.0084,0.083,0.29706,0.076139,CWH,-0.22613906119882837,0,FALSE,FALSE,-0.4657269180241472,-0.4881480463634041
PKO,LITTLE CREEK,915-488300-92500-00000-0000-0000-000-000-000-000-000-000,6,PKO-12,1983,0,26.435,3.2746888896874133,800,6.684611727667927,1291.91660361158,1207.65641851241,1.614895754514475,0.47927040630303874,0.004,0.0052,0.083,0.29706,0.076139,CWH,0.10267616261581472,0,FALSE,FALSE,-0.4657269180241472,-0.5302571087492421
PKO,LITTLE CREEK,915-488300-92500-00000-0000-0000-000-000-000-000-000-000,6,PKO-12,1985,0,26.435,3.2746888896874133,800,6.684611727667927,271.926696800109,1291.91660361158,0.33990837100013627,-1.0790791947512106,0.004,0.0052,0.083,0.29706,0.076139,CWH,-0.9758993397997916,0,FALSE,FALSE,-0.4657269180241472,-0.5302571087492421
PKO,LITTLE CREEK,915-488300-92500-00000-0000-0000-000-000-000-000-000-000,6,PKO-12,1987,0,26.435,3.2746888896874133,150,5.0106352940962555,596.169674940237,271.926696800109,3.97446449960158,1.3798900219497705,0.004,0.0052,0.083,0.29706,0.076139,CWH,0.8862048812919091,0,FALSE,FALSE,-0.4657269180241472,-0.5302571087492421
PKO,LITTLE CREEK,915-488300-92500-00000-0000-0000-000-000-000-000-000-000,6,PKO-12,1989,0,26.435,3.2746888896874133,500,6.214608098422191,1985.80809901734,596.169674940237,3.9716161980346802,1.379173114634762,0.0012,0.0015,0.083,0.29706,0.076139,CWH,0.15947767939610902,0,FALSE,FALSE,-0.4657269180241472,-0.5789457121328675
PKO,LITTLE CREEK,915-488300-92500-00000-0000-0000-000-000-000-000-000-000,6,PKO-12,1991,0,26.435,3.2746888896874133,1400,7.24422751560335,344.08042731596,1985.80809901734,0.24577173379711428,-1.4033520852198982,0.0012,0.0015,0.083,0.29706,0.076139,CWH,-0.18487911555035336,0,FALSE,FALSE,-0.4657269180241472,-0.5789457121328675
PKO,LITTLE CREEK,915-488300-92500-00000-0000-0000-000-000-000-000-000-000,6,PKO-12,1993,0,26.435,3.2746888896874133,275,5.616771097666572,273.245257064962,344.08042731596,0.9936191165998618,-0.006401328253843622,0.0012,0.0015,0.083,0.29706,0.076139,CWH,-1.7567819796155162,0,FALSE,FALSE,-0.4657269180241472,-0.5789457121328675
PKO,LITTLE CREEK,915-488300-92500-00000-0000-0000-000-000-000-000-000-000,6,PKO-12,1995,0,26.435,3.2746888896874133,230,5.438079308923196,343.145079226531,273.245257064962,1.491935127071874,0.4000740203214343,0.0012,0.0015,0.083,0.29706,0.076139,CWH,-0.5672147431639023,0,FALSE,FALSE,-0.4657269180241472,-0.5789457121328675
PKO,LITTLE CREEK,915-488300-92500-00000-0000-0000-000-000-000-000-000-000,6,PKO-12,1997,0,26.435,3.2746888896874133,300,5.703782474656201,588.141987786433,343.145079226531,1.9604732926214432,0.6731859199190979,0.0012,0.0015,0.083,0.29706,0.076139,CWH,0.8907774948170872,0,FALSE,FALSE,-0.4657269180241472,-0.5789457121328675
PKO,LITTLE CREEK,915-488300-92500-00000-0000-0000-000-000-000-000-000-000,6,PKO-12,1999,0,26.435,3.2746888896874133,520,6.253828811575473,2173.48073760367,588.141987786433,4.1797706492378275,1.4302563764279375,5e-4,6e-4,0.083,0.29706,0.076139,CWH,1.6302835492491898,0,FALSE,FALSE,-0.4657269180241472,-0.5907888859288845
PKO,LITTLE CREEK,915-488300-92500-00000-0000-0000-000-000-000-000-000-000,6,PKO-12,2001,0,26.435,3.2746888896874133,1700,7.438383530044307,2123.12047044893,2173.48073760367,1.2488943943817237,0.22225867543237712,5e-4,6e-4,0.083,0.29706,0.076139,CWH,1.9190067210816288,0,FALSE,FALSE,-0.4657269180241472,-0.5907888859288845
PKO,LITTLE CREEK,915-488300-92500-00000-0000-0000-000-000-000-000-000-000,6,PKO-12,2009,0,26.435,3.2746888896874133,8500,9.047821442478408,1709.65393352624,9892.28110065649,0.20113575688544,-1.6037751915177345,1e-4,1e-4,0.083,0.29706,0.076139,CWH,1.604652193542091,0,FALSE,FALSE,-0.4657269180241472,-0.5973684269266717
PKO,QUIGLEY CREEK,915-488300-01500-00000-0000-0000-000-000-000-000-000-000,6,PKO-12,1959,0,17.195,2.8446186438842296,25,3.2188758248682006,1720.50243818938,37.2376563172019,68.8200975275752,4.231495817508336,0.0018,0.0026,0.019,0.29721,0.069258,CWH,0.7824977620566573,0.00322492286369013,FALSE,FALSE,-0.7671221716897313,-0.5644707219377357
PKO,QUIGLEY CREEK,915-488300-01500-00000-0000-0000-000-000-000-000-000-000,6,PKO-12,1961,0,17.195,2.8446186438842296,750,6.620073206530356,13534.5563833405,1720.50243818938,18.046075177787333,2.8929282194611896,0.0018,0.0026,0.019,0.29721,0.069258,CWH,0.00583928468743269,0.00322492286369013,FALSE,FALSE,-0.7671221716897313,-0.5644707219377357
PKO,QUIGLEY CREEK,915-488300-01500-00000-0000-0000-000-000-000-000-000-000,6,PKO-12,1963,0,17.195,2.8446186438842296,7500,8.922658299524402,8470.9981051781,13534.5563833405,1.1294664140237467,0.12174532122374555,0.001,0.0014,0.019,0.29721,0.069258,CWH,0.5797944041154652,0.00322492286369013,FALSE,FALSE,-0.7671221716897313,-0.580261620332425
PKO,QUIGLEY CREEK,915-488300-01500-00000-0000-0000-000-000-000-000-000-000,6,PKO-12,1969,0,17.195,2.8446186438842296,120,4.787491742782046,104.539110915797,215.179371506781,0.8711592576316416,-0.13793047426084148,4e-4,5e-4,0.019,0.29721,0.069258,CWH,0.09673401232408343,0.00322492286369013,FALSE,FALSE,-0.7671221716897313,-0.592104794128442
PKO,QUIGLEY CREEK,915-488300-01500-00000-0000-0000-000-000-000-000-000-000,6,PKO-12,1971,0,17.195,2.8446186438842296,75,4.31748811353631,189.724051698051,104.539110915797,2.52965402264068,0.9280825434439074,4e-4,5e-4,0.019,0.29721,0.069258,CWH,-0.34080392906905344,0.00322492286369013,FALSE,FALSE,-0.7671221716897313,-0.592104794128442
PKO,QUIGLEY CREEK,915-488300-01500-00000-0000-0000-000-000-000-000-000-000,6,PKO-12,1973,0,17.195,2.8446186438842296,100,4.605170185988092,115.022619029332,189.724051698051,1.15022619029332,0.13995861024634765,2e-4,2e-4,0.019,0.29721,0.069258,CWH,-0.20355231452664888,0.00322492286369013,FALSE,FALSE,-0.7671221716897313,-0.5960525187271143
PKO,QUIGLEY CREEK,915-488300-01500-00000-0000-0000-000-000-000-000-000-000,6,PKO-12,1975,0,17.195,2.8446186438842296,75,4.31748811353631,313.257469409483,115.022619029332,4.176766258793107,1.42953732483821,2e-4,2e-4,0.019,0.29721,0.069258,CWH,1.2286162579398736,0.00322492286369013,FALSE,FALSE,-0.7671221716897313,-0.5960525187271143
PKO,QUIGLEY CREEK,915-488300-01500-00000-0000-0000-000-000-000-000-000-000,6,PKO-12,1977,0,17.195,2.8446186438842296,160,5.075173815233827,605.473031179182,313.257469409483,3.7842064448698878,1.330836207013774,2e-4,2e-4,0.019,0.29721,0.069258,CWH,0.9724829797884954,0.00322492286369013,FALSE,FALSE,-0.7671221716897313,-0.5960525187271143
PKO,QUIGLEY CREEK,915-488300-01500-00000-0000-0000-000-000-000-000-000-000,6,PKO-12,1979,0,17.195,2.8446186438842296,400,5.991464547107982,103.47032346131,605.473031179182,0.258675808653275,-1.3521797053598343,0,0,0.019,0.29721,0.069258,CWH,-1.19975713829789,0.00322492286369013,FALSE,FALSE,-0.7671221716897313,-0.5986843351262291
PKO,QUIGLEY CREEK,915-488300-01500-00000-0000-0000-000-000-000-000-000-000,6,PKO-12,1981,0,17.195,2.8446186438842296,50,3.912023005428146,90.5742313884311,103.47032346131,1.811484627768622,0.5941467454040013,0,0,0.019,0.29721,0.069258,CWH,-0.22613906119882837,0.00322492286369013,FALSE,FALSE,-0.7671221716897313,-0.5986843351262291
PKO,QUIGLEY CREEK,915-488300-01500-00000-0000-0000-000-000-000-000-000-000,6,PKO-12,1983,0,17.195,2.8446186438842296,60,4.0943445622221,242.234363177172,90.5742313884311,4.0372393862862,1.3955611381771968,0.0094,0.0137,0.019,0.29721,0.069258,CWH,0.10267616261581472,0.00322492286369013,FALSE,FALSE,-0.7671221716897313,-0.4184049117868597
PKO,QUIGLEY CREEK,915-488300-01500-00000-0000-0000-000-000-000-000-000-000,6,PKO-12,1985,0,17.195,2.8446186438842296,150,5.0106352940962555,45.3211161333515,242.234363177172,0.30214077422234337,-1.196862230407594,0.0094,0.0137,0.019,0.29721,0.069258,CWH,-0.9758993397997916,0.00322492286369013,FALSE,FALSE,-0.7671221716897313,-0.4184049117868597
PKO,QUIGLEY CREEK,915-488300-01500-00000-0000-0000-000-000-000-000-000-000,6,PKO-12,1987,0,17.195,2.8446186438842296,25,3.2188758248682006,59.6169674940237,45.3211161333515,2.384678699760948,0.8690643981837799,0.0094,0.0137,0.019,0.29721,0.069258,CWH,0.8862048812919091,0.00322492286369013,FALSE,FALSE,-0.7671221716897313,-0.4184049117868597
PKO,QUIGLEY CREEK,915-488300-01500-00000-0000-0000-000-000-000-000-000-000,6,PKO-12,1989,0,17.195,2.8446186438842296,50,3.912023005428146,35.4608589110239,59.6169674940237,0.7092171782204779,-0.3435934831063424,0.0094,0.0137,0.019,0.29721,0.069258,CWH,0.15947767939610902,0.00322492286369013,FALSE,FALSE,-0.7671221716897313,-0.4184049117868597
PKO,QUIGLEY CREEK,915-488300-01500-00000-0000-0000-000-000-000-000-000-000,6,PKO-12,1991,0,17.195,2.8446186438842296,25,3.2188758248682006,75.0720932325731,35.4608589110239,3.002883729302924,1.0995730700707806,0.0094,0.0137,0.019,0.29721,0.069258,CWH,-0.18487911555035336,0.00322492286369013,FALSE,FALSE,-0.7671221716897313,-0.4184049117868597
PKO,QUIGLEY CREEK,915-488300-01500-00000-0000-0000-000-000-000-000-000-000,6,PKO-12,1993,0,17.195,2.8446186438842296,60,4.0943445622221,29.7005714201046,75.0720932325731,0.49500952366840995,-0.7031782768643665,0.0071,0.0103,0.019,0.29721,0.069258,CWH,-1.7567819796155162,0.00322492286369013,FALSE,FALSE,-0.7671221716897313,-0.4631457905718127
PKO,QUIGLEY CREEK,915-488300-01500-00000-0000-0000-000-000-000-000-000-000,6,PKO-12,1995,0,17.195,2.8446186438842296,25,3.2188758248682006,11.438169307551,29.7005714201046,0.45752677230204,-0.7819198772857294,0.0071,0.0103,0.019,0.29721,0.069258,CWH,-0.5672147431639023,0.00322492286369013,FALSE,FALSE,-0.7671221716897313,-0.4631457905718127
PKO,QUIGLEY CREEK,915-488300-01500-00000-0000-0000-000-000-000-000-000-000,6,PKO-12,1997,0,17.195,2.8446186438842296,10,2.302585092994046,152.690708367632,11.438169307551,15.2690708367632,2.7258292684442122,0.0071,0.0103,0.019,0.29721,0.069258,CWH,0.8907774948170872,0.00322492286369013,FALSE,FALSE,-0.7671221716897313,-0.4631457905718127
PKO,QUIGLEY CREEK,915-488300-01500-00000-0000-0000-000-000-000-000-000-000,6,PKO-12,1999,0,17.195,2.8446186438842296,135,4.90527477843843,767.110848566003,152.690708367632,5.682302581970393,1.7373565347368223,0.0071,0.0103,0.019,0.29721,0.069258,CWH,1.6302835492491898,0.00322492286369013,FALSE,FALSE,-0.7671221716897313,-0.4631457905718127
PKO,QUIGLEY CREEK,915-488300-01500-00000-0000-0000-000-000-000-000-000-000,6,PKO-12,2001,0,17.195,2.8446186438842296,600,6.396929655216146,437.113038033603,767.110848566003,0.728521730056005,-0.3167378253003106,0.0071,0.0103,0.019,0.29721,0.069258,CWH,1.9190067210816288,0.00322492286369013,FALSE,FALSE,-0.7671221716897313,-0.4631457905718127
PKO,QUIGLEY CREEK,915-488300-01500-00000-0000-0000-000-000-000-000-000-000,6,PKO-12,2007,0,17.195,2.8446186438842296,250,5.521460917862246,1512.93710951217,291.274998400026,6.05174843804868,1.80034722831544,0.0024,0.0034,0.019,0.29721,0.069258,CWH,0.8768892458318005,0.00322492286369013,FALSE,FALSE,-0.7671221716897313,-0.5539434563412762
PKO,POWLES CREEK,915-488300-02700-00000-0000-0000-000-000-000-000-000-000,6,PKO-12,1955,0,32.659,3.486120468579993,75,4.31748811353631,49.8238033013005,153.094773803503,0.6643173773506733,-0.40899526576300965,0.0063,0.007,0.054,0.29991,0.165924,CWH,-0.07106879047729574,0,FALSE,FALSE,-0.3175546718036849,-0.5065707611572082
PKO,POWLES CREEK,915-488300-02700-00000-0000-0000-000-000-000-000-000-000,6,PKO-12,1957,0,32.659,3.486120468579993,25,3.2188758248682006,37.2376563172019,49.8238033013005,1.4895062526880762,0.3984446910060119,0.0063,0.007,0.054,0.29991,0.165924,CWH,-0.3276691034772351,0,FALSE,FALSE,-0.3175546718036849,-0.5065707611572082
PKO,POWLES CREEK,915-488300-02700-00000-0000-0000-000-000-000-000-000-000,6,PKO-12,1959,0,32.659,3.486120468579993,25,3.2188758248682006,3441.00487637877,37.2376563172019,137.6401950551508,4.924642998068284,0.0029,0.0033,0.054,0.29991,0.165924,CWH,0.7824977620566573,0,FALSE,FALSE,-0.3175546718036849,-0.5552593645408336
PKO,POWLES CREEK,915-488300-02700-00000-0000-0000-000-000-000-000-000-000,6,PKO-12,1961,0,32.659,3.486120468579993,1500,7.313220387090301,13534.5563833405,3441.00487637877,9.023037588893667,2.199781038901244,0.0029,0.0033,0.054,0.29991,0.165924,CWH,0.00583928468743269,0,FALSE,FALSE,-0.3175546718036849,-0.5552593645408336
PKO,POWLES CREEK,915-488300-02700-00000-0000-0000-000-000-000-000-000-000,6,PKO-12,1963,0,32.659,3.486120468579993,7500,8.922658299524402,8470.9981051781,13534.5563833405,1.1294664140237467,0.12174532122374555,0.0029,0.0033,0.054,0.29991,0.165924,CWH,0.5797944041154652,0,FALSE,FALSE,-0.3175546718036849,-0.5552593645408336
PKO,POWLES CREEK,915-488300-02700-00000-0000-0000-000-000-000-000-000-000,6,PKO-12,1969,0,32.659,3.486120468579993,600,6.396929655216146,1045.39110915797,1075.89685753391,1.7423185152632834,0.5552167062991039,0.0014,0.0016,0.054,0.29991,0.165924,CWH,0.09673401232408343,0,FALSE,FALSE,-0.3175546718036849,-0.5776298039333101
PKO,POWLES CREEK,915-488300-02700-00000-0000-0000-000-000-000-000-000-000,6,PKO-12,1975,0,32.659,3.486120468579993,750,6.620073206530356,2153.6451021902,1150.22619029332,2.8715268029202665,1.054843875396801,0.0013,0.0015,0.054,0.29991,0.165924,CWH,1.2286162579398736,0,FALSE,FALSE,-0.3175546718036849,-0.5789457121328675
PKO,POWLES CREEK,915-488300-02700-00000-0000-0000-000-000-000-000-000-000,6,PKO-12,1977,0,32.659,3.486120468579993,1100,7.003065458786462,151.368257794795,2153.6451021902,0.13760750708617728,-1.9833497976587549,0.0013,0.0015,0.054,0.29991,0.165924,CWH,0.9724829797884954,0,FALSE,FALSE,-0.3175546718036849,-0.5789457121328675
PKO,POWLES CREEK,915-488300-02700-00000-0000-0000-000-000-000-000-000-000,6,PKO-12,1979,0,32.659,3.486120468579993,100,4.605170185988092,1448.58452845834,151.368257794795,14.4858452845834,2.6731719853753146,5e-4,5e-4,0.054,0.29991,0.165924,CWH,-1.19975713829789,0,FALSE,FALSE,-0.3175546718036849,-0.592104794128442
PKO,POWLES CREEK,915-488300-02700-00000-0000-0000-000-000-000-000-000-000,6,PKO-12,1981,0,32.659,3.486120468579993,700,6.551080335043404,30.1914104628103,1448.58452845834,0.043130586375443286,-3.143522872879369,5e-4,5e-4,0.054,0.29991,0.165924,CWH,-0.22613906119882837,0,FALSE,FALSE,-0.3175546718036849,-0.592104794128442
PKO,POWLES CREEK,915-488300-02700-00000-0000-0000-000-000-000-000-000-000,6,PKO-12,1983,0,32.659,3.486120468579993,20,2.995732273553991,322.979150902895,30.1914104628103,16.14895754514475,2.7818554992970843,4e-4,5e-4,0.054,0.29991,0.165924,CWH,0.10267616261581472,0,FALSE,FALSE,-0.3175546718036849,-0.592104794128442
PKO,POWLES CREEK,915-488300-02700-00000-0000-0000-000-000-000-000-000-000,6,PKO-12,1985,0,32.659,3.486120468579993,200,5.298317366548036,45.3211161333515,322.979150902895,0.2266055806667575,-1.484544302859375,4e-4,5e-4,0.054,0.29991,0.165924,CWH,-0.9758993397997916,0,FALSE,FALSE,-0.3175546718036849,-0.592104794128442
PKO,POWLES CREEK,915-488300-02700-00000-0000-0000-000-000-000-000-000-000,6,PKO-12,1987,0,32.659,3.486120468579993,25,3.2188758248682006,238.467869976095,45.3211161333515,9.538714799043799,2.2553587593036712,4e-4,5e-4,0.054,0.29991,0.165924,CWH,0.8862048812919091,0,FALSE,FALSE,-0.3175546718036849,-0.592104794128442
PKO,POWLES CREEK,915-488300-02700-00000-0000-0000-000-000-000-000-000-000,6,PKO-12,1989,0,32.659,3.486120468579993,200,5.298317366548036,14.1843435644096,238.467869976095,0.070921717822048,-2.646178576100385,1e-4,1e-4,0.054,0.29991,0.165924,CWH,0.15947767939610902,0,FALSE,FALSE,-0.3175546718036849,-0.5973684269266717
PKO,POWLES CREEK,915-488300-02700-00000-0000-0000-000-000-000-000-000-000,6,PKO-12,2001,0,32.659,3.486120468579993,300,5.703782474656201,3746.68318314517,383.555424283001,12.488943943817233,2.5248437684264227,0,0,0.054,0.29991,0.165924,CWH,1.9190067210816288,0,FALSE,FALSE,-0.3175546718036849,-0.5986843351262291
PKO,POWLES CREEK,915-488300-02700-00000-0000-0000-000-000-000-000-000-000,6,PKO-12,2003,0,32.659,3.486120468579993,3000,8.006367567650246,3746.9225260707,3746.68318314517,1.2489741753569,0.22232255467419945,0,0,0.054,0.29991,0.165924,CWH,0.41101277747559006,0,FALSE,FALSE,-0.3175546718036849,-0.5986843351262291
PKO,POWLES CREEK,915-488300-02700-00000-0000-0000-000-000-000-000-000-000,6,PKO-12,2009,0,32.659,3.486120468579993,10000,9.210340371976184,1709.65393352624,11637.9777654782,0.170965393352624,-1.7662941210155094,0,0,0.054,0.29991,0.165924,CWH,1.604652193542091,0,FALSE,FALSE,-0.3175546718036849,-0.5986843351262291
PKO,BLEE CREEK,915-488300-03900-00000-0000-0000-000-000-000-000-000-000,6,PKO-12,1959,0,9.407,2.2414540929898146,25,3.2188758248682006,1720.50243818938,37.2376563172019,68.8200975275752,4.231495817508336,0.0328,0.035,0.035,0.2972,0.068886,CWH,0.7824977620566573,0,FALSE,FALSE,-1.1898227295472137,-0.1381164652811245
PKO,BLEE CREEK,915-488300-03900-00000-0000-0000-000-000-000-000-000-000,6,PKO-12,1961,0,9.407,2.2414540929898146,750,6.620073206530356,13534.5563833405,1720.50243818938,18.046075177787333,2.8929282194611896,0.0328,0.035,0.035,0.2972,0.068886,CWH,0.00583928468743269,0,FALSE,FALSE,-1.1898227295472137,-0.1381164652811245
PKO,BLEE CREEK,915-488300-03900-00000-0000-0000-000-000-000-000-000-000,6,PKO-12,1963,0,9.407,2.2414540929898146,7500,8.922658299524402,8470.9981051781,13534.5563833405,1.1294664140237467,0.12174532122374555,0.0328,0.035,0.035,0.2972,0.068886,CWH,0.5797944041154652,0,FALSE,FALSE,-1.1898227295472137,-0.1381164652811245
PKO,BLEE CREEK,915-488300-03900-00000-0000-0000-000-000-000-000-000-000,6,PKO-12,1965,0,9.407,2.2414540929898146,3500,8.160518247477505,54.2689091830297,8470.9981051781,0.015505402623722771,-4.166566759419385,0.0328,0.035,0.035,0.2972,0.068886,CWH,-0.7093794641235007,0,FALSE,FALSE,-1.1898227295472137,-0.1381164652811245
PKO,BLEE CREEK,915-488300-03900-00000-0000-0000-000-000-000-000-000-000,6,PKO-12,1977,0,9.407,2.2414540929898146,700,6.551080335043404,151.368257794795,1370.50142866649,0.21624036827827858,-1.5313646739156976,0.0132,0.0141,0.035,0.2972,0.068886,CWH,0.9724829797884954,0,FALSE,FALSE,-1.1898227295472137,-0.41314127898862985
PKO,BLEE CREEK,915-488300-03900-00000-0000-0000-000-000-000-000-000-000,6,PKO-12,1979,0,9.407,2.2414540929898146,100,4.605170185988092,206.94064692262,151.368257794795,2.0694064692262,0.7272618363200015,0.0102,0.0109,0.035,0.2972,0.068886,CWH,-1.19975713829789,0,FALSE,FALSE,-1.1898227295472137,-0.455250341374468
PKO,BLEE CREEK,915-488300-03900-00000-0000-0000-000-000-000-000-000-000,6,PKO-12,1981,0,9.407,2.2414540929898146,100,4.605170185988092,113.217789235539,206.94064692262,1.13217789235539,0.12414311615826674,0.0102,0.0109,0.035,0.2972,0.068886,CWH,-0.22613906119882837,0,FALSE,FALSE,-1.1898227295472137,-0.455250341374468