Species,River,WATERSHED_CDE,DFO,CU,BroodYear,hararea_m2_3005,area_km2,ln_area_km2,Spawners,logS,Recruits,Returns,recruitPerSpawner,ln_RS,ECA_age_proxy,ECA_age_proxy_forested_only,lake_cover_pct,var_eaubc_KFACTOR,var_eaubc_MELTONS_R,vri_bec_zone,npgo,portion_reporting_vri_cover1_missing,hatchery_enhancement,year_of_enhacement,ln_area_km2_std,ECA_age_proxy_forested_only_std
PKO,BLEE CREEK,915-488300-03900-00000-0000-0000-000-000-000-000-000-000,6,PKO-12,1983,0,9.407,2.2414540929898146,75,4.31748811353631,322.979150902895,113.217789235539,4.306388678705267,1.460099659314765,0.0102,0.0109,0.035,0.2972,0.068886,CWH,0.10267616261581472,0,FALSE,FALSE,-1.1898227295472137,-0.455250341374468
PKO,BLEE CREEK,915-488300-03900-00000-0000-0000-000-000-000-000-000-000,6,PKO-12,1985,0,9.407,2.2414540929898146,200,5.298317366548036,45.3211161333515,322.979150902895,0.2266055806667575,-1.484544302859375,0.0102,0.0109,0.035,0.2972,0.068886,CWH,-0.9758993397997916,0,FALSE,FALSE,-1.1898227295472137,-0.455250341374468
PKO,BLEE CREEK,915-488300-03900-00000-0000-0000-000-000-000-000-000-000,6,PKO-12,1987,0,9.407,2.2414540929898146,25,3.2188758248682006,23.8467869976095,45.3211161333515,0.9538714799043799,-0.04722633369037435,0.0102,0.0109,0.035,0.2972,0.068886,CWH,0.8862048812919091,0,FALSE,FALSE,-1.1898227295472137,-0.455250341374468
PKO,BLEE CREEK,915-488300-03900-00000-0000-0000-000-000-000-000-000-000,6,PKO-12,1989,0,9.407,2.2414540929898146,20,2.995732273553991,106.382576733072,23.8467869976095,5.3191288366536,1.6713095374359253,0.0032,0.0035,0.035,0.2972,0.068886,CWH,0.15947767939610902,0,FALSE,FALSE,-1.1898227295472137,-0.5526275481417187
PKO,BLEE CREEK,915-488300-03900-00000-0000-0000-000-000-000-000-000-000,6,PKO-12,1991,0,9.407,2.2414540929898146,75,4.31748811353631,6.25600776938109,106.382576733072,0.0834134369250812,-2.4839458683853297,0.0032,0.0035,0.035,0.2972,0.068886,CWH,-0.18487911555035336,0,FALSE,FALSE,-1.1898227295472137,-0.5526275481417187
PKO,BLEE CREEK,915-488300-03900-00000-0000-0000-000-000-000-000-000-000,6,PKO-12,1993,0,9.407,2.2414540929898146,5,1.6094379124341003,237.604571360836,6.25600776938109,47.5209142721672,3.861169914603466,0.0032,0.0035,0.035,0.2972,0.068886,CWH,-1.7567819796155162,0,FALSE,FALSE,-1.1898227295472137,-0.5526275481417187
PKO,BLEE CREEK,915-488300-03900-00000-0000-0000-000-000-000-000-000-000,6,PKO-12,1995,0,9.407,2.2414540929898146,200,5.298317366548036,11.438169307551,237.604571360836,0.057190846537755,-2.8613614189655654,0.0032,0.0035,0.035,0.2972,0.068886,CWH,-0.5672147431639023,0,FALSE,FALSE,-1.1898227295472137,-0.5526275481417187
PKO,BLEE CREEK,915-488300-03900-00000-0000-0000-000-000-000-000-000-000,6,PKO-12,1997,0,9.407,2.2414540929898146,10,2.302585092994046,152.690708367632,11.438169307551,15.2690708367632,2.7258292684442122,0.0032,0.0035,0.035,0.2972,0.068886,CWH,0.8907774948170872,0,FALSE,FALSE,-1.1898227295472137,-0.5526275481417187
PKO,BLEE CREEK,915-488300-03900-00000-0000-0000-000-000-000-000-000-000,6,PKO-12,1999,0,9.407,2.2414540929898146,135,4.90527477843843,767.110848566003,152.690708367632,5.682302581970393,1.7373565347368223,3e-4,3e-4,0.035,0.2972,0.068886,CWH,1.6302835492491898,0,FALSE,FALSE,-1.1898227295472137,-0.5947366105275568
PKO,BLEE CREEK,915-488300-03900-00000-0000-0000-000-000-000-000-000-000,6,PKO-12,2001,0,9.407,2.2414540929898146,600,6.396929655216146,3122.2359859543,767.110848566003,5.203726643257166,1.64937503107252,3e-4,3e-4,0.035,0.2972,0.068886,CWH,1.9190067210816288,0,FALSE,FALSE,-1.1898227295472137,-0.5947366105275568
PKO,BLEE CREEK,915-488300-03900-00000-0000-0000-000-000-000-000-000-000,6,PKO-12,2003,0,9.407,2.2414540929898146,2500,7.824046010856292,2747.74318578518,3122.2359859543,1.099097274314072,0.09448918316431452,3e-4,3e-4,0.035,0.2972,0.068886,CWH,0.41101277747559006,0,FALSE,FALSE,-1.1898227295472137,-0.5947366105275568
PKO,BLEE CREEK,915-488300-03900-00000-0000-0000-000-000-000-000-000-000,6,PKO-12,2005,0,9.407,2.2414540929898146,2200,7.696212639346407,2330.19998720021,2747.74318578518,1.059181812363732,0.05749673494643307,3e-4,3e-4,0.035,0.2972,0.068886,CWH,-0.8145696192436794,0,FALSE,FALSE,-1.1898227295472137,-0.5947366105275568
PKO,BLEE CREEK,915-488300-03900-00000-0000-0000-000-000-000-000-000-000,6,PKO-12,2007,0,9.407,2.2414540929898146,2000,7.600902459542082,2909.49444136955,2330.19998720021,1.454747220684775,0.3748321540422655,3e-4,3e-4,0.035,0.2972,0.068886,CWH,0.8768892458318005,0,FALSE,FALSE,-1.1898227295472137,-0.5947366105275568
PKO,BLOOMFIELD CREEK,915-488300-07700-00000-0000-0000-000-000-000-000-000-000,6,PKO-12,1955,0,41.58,3.727619282429867,1500,7.313220387090301,49.8238033013005,3061.89547607005,0.033215868867533666,-3.4047275393170007,0.0144,0.0174,0.051,0.29547,0.145072,CWH,-0.07106879047729574,0,FALSE,FALSE,-0.148311165724145,-0.36971630840323433
PKO,BLOOMFIELD CREEK,915-488300-07700-00000-0000-0000-000-000-000-000-000-000,6,PKO-12,1957,0,41.58,3.727619282429867,25,3.2188758248682006,37.2376563172019,49.8238033013005,1.4895062526880762,0.3984446910060119,0.0144,0.0174,0.051,0.29547,0.145072,CWH,-0.3276691034772351,0,FALSE,FALSE,-0.148311165724145,-0.36971630840323433
PKO,BLOOMFIELD CREEK,915-488300-07700-00000-0000-0000-000-000-000-000-000-000,6,PKO-12,1959,0,41.58,3.727619282429867,25,3.2188758248682006,8029.01137821713,37.2376563172019,321.1604551286852,5.771940858455488,0.0066,0.0079,0.051,0.29547,0.145072,CWH,0.7824977620566573,0,FALSE,FALSE,-0.148311165724145,-0.49472758736119127
PKO,BLOOMFIELD CREEK,915-488300-07700-00000-0000-0000-000-000-000-000-000-000,6,PKO-12,1961,0,41.58,3.727619282429867,3500,8.160518247477505,721.843007111491,8029.01137821713,0.20624085917471172,-1.5787105739023823,0.0066,0.0079,0.051,0.29547,0.145072,CWH,0.00583928468743269,0,FALSE,FALSE,-0.148311165724145,-0.49472758736119127
PKO,BLOOMFIELD CREEK,915-488300-07700-00000-0000-0000-000-000-000-000-000-000,6,PKO-12,1963,0,41.58,3.727619282429867,400,5.991464547107982,8470.9981051781,721.843007111491,21.17749526294525,3.0529390736401654,0.0066,0.0079,0.051,0.29547,0.145072,CWH,0.5797944041154652,0,FALSE,FALSE,-0.148311165724145,-0.49472758736119127
PKO,BLOOMFIELD CREEK,915-488300-07700-00000-0000-0000-000-000-000-000-000-000,6,PKO-12,1971,0,41.58,3.727619282429867,1000,6.907755278982137,379.448103396102,1393.85481221063,0.379448103396102,-0.9690374414419738,0.0038,0.0045,0.051,0.29547,0.145072,CWH,-0.34080392906905344,0,FALSE,FALSE,-0.148311165724145,-0.5394684661461443
PKO,BLOOMFIELD CREEK,915-488300-07700-00000-0000-0000-000-000-000-000-000-000,6,PKO-12,1973,0,41.58,3.727619282429867,200,5.298317366548036,1840.36190446932,379.448103396102,9.2018095223466,2.219400151926188,0.007,0.0084,0.051,0.29547,0.145072,CWH,-0.20355231452664888,0,FALSE,FALSE,-0.148311165724145,-0.4881480463634041
PKO,BLOOMFIELD CREEK,915-488300-07700-00000-0000-0000-000-000-000-000-000-000,6,PKO-12,1975,0,41.58,3.727619282429867,1200,7.090076835776092,3524.14653085668,1840.36190446932,2.9367887757138997,1.0773167312488565,0.007,0.0084,0.051,0.29547,0.145072,CWH,1.2286162579398736,0,FALSE,FALSE,-0.148311165724145,-0.4881480463634041
PKO,BLOOMFIELD CREEK,915-488300-07700-00000-0000-0000-000-000-000-000-000-000,6,PKO-12,1977,0,41.58,3.727619282429867,1800,7.495541943884256,302.736515589591,3524.14653085668,0.16818695310532836,-1.7826791021966004,0.007,0.0084,0.051,0.29547,0.145072,CWH,0.9724829797884954,0,FALSE,FALSE,-0.148311165724145,-0.4881480463634041
PKO,BLOOMFIELD CREEK,915-488300-07700-00000-0000-0000-000-000-000-000-000-000,6,PKO-12,1979,0,41.58,3.727619282429867,200,5.298317366548036,310.410970383929,302.736515589591,1.552054851919645,0.43957976386821745,0.0066,0.008,0.051,0.29547,0.145072,CWH,-1.19975713829789,0,FALSE,FALSE,-0.148311165724145,-0.4934116791616338
PKO,BLOOMFIELD CREEK,915-488300-07700-00000-0000-0000-000-000-000-000-000-000,6,PKO-12,1981,0,41.58,3.727619282429867,150,5.0106352940962555,113.217789235539,310.410970383929,0.75478526157026,-0.2813219919498976,0.0066,0.008,0.051,0.29547,0.145072,CWH,-0.22613906119882837,0,FALSE,FALSE,-0.148311165724145,-0.4934116791616338
PKO,BLOOMFIELD CREEK,915-488300-07700-00000-0000-0000-000-000-000-000-000-000,6,PKO-12,1983,0,41.58,3.727619282429867,75,4.31748811353631,161.489575451448,113.217789235539,2.15319433935264,0.7669524787548226,0.0052,0.0063,0.051,0.29547,0.145072,CWH,0.10267616261581472,0,FALSE,FALSE,-0.148311165724145,-0.5157821185541103
PKO,BLOOMFIELD CREEK,915-488300-07700-00000-0000-0000-000-000-000-000-000-000,6,PKO-12,1985,0,41.58,3.727619282429867,100,4.605170185988092,30.818358970679,161.489575451448,0.30818358970679,-1.177059603111415,0.0052,0.0063,0.051,0.29547,0.145072,CWH,-0.9758993397997916,0,FALSE,FALSE,-0.148311165724145,-0.5157821185541103
PKO,BLOOMFIELD CREEK,915-488300-07700-00000-0000-0000-000-000-000-000-000-000,6,PKO-12,1987,113427.140216384,41.58,3.727619282429867,17,2.833213344056216,29.8084837470119,30.818358970679,1.7534402204124646,0.5615796984358209,0.0079,0.0096,0.051,0.29547,0.145072,CWH,0.8862048812919091,0,FALSE,FALSE,-0.148311165724145,-0.47235714796871475
PKO,BLOOMFIELD CREEK,915-488300-07700-00000-0000-0000-000-000-000-000-000-000,6,PKO-12,1989,0,41.58,3.727619282429867,25,3.2188758248682006,35.4608589110239,29.8084837470119,1.4184343564409558,0.34955369745360293,0.0065,0.0079,0.051,0.29547,0.145072,CWH,0.15947767939610902,0,FALSE,FALSE,-0.148311165724145,-0.49472758736119127
PKO,BLOOMFIELD CREEK,915-488300-07700-00000-0000-0000-000-000-000-000-000-000,6,PKO-12,1991,0,41.58,3.727619282429867,25,3.2188758248682006,100.096124310097,35.4608589110239,4.00384497240388,1.387255142522557,0.0065,0.0079,0.051,0.29547,0.145072,CWH,-0.18487911555035336,0,FALSE,FALSE,-0.148311165724145,-0.49472758736119127
PKO,BLOOMFIELD CREEK,915-488300-07700-00000-0000-0000-000-000-000-000-000-000,6,PKO-12,1993,0,41.58,3.727619282429867,80,4.382026634673881,23.7604571360836,100.096124310097,0.297005714201045,-1.2140039006303605,0.0043,0.0052,0.051,0.29547,0.145072,CWH,-1.7567819796155162,0,FALSE,FALSE,-0.148311165724145,-0.5302571087492421
PKO,BLOOMFIELD CREEK,915-488300-07700-00000-0000-0000-000-000-000-000-000-000,6,PKO-12,1995,0,41.58,3.727619282429867,20,2.995732273553991,45.7526772302042,23.7604571360836,2.28763386151021,0.8275180351483753,0.0043,0.0052,0.051,0.29547,0.145072,CWH,-0.5672147431639023,0,FALSE,FALSE,-0.148311165724145,-0.5302571087492421
PKO,BLOOMFIELD CREEK,915-488300-07700-00000-0000-0000-000-000-000-000-000-000,6,PKO-12,1997,0,41.58,3.727619282429867,40,3.6888794541139363,67.8625370522807,45.7526772302042,1.6965634263070175,0.5286046911079899,0.0043,0.0052,0.051,0.29547,0.145072,CWH,0.8907774948170872,0,FALSE,FALSE,-0.148311165724145,-0.5302571087492421
PKO,BLOOMFIELD CREEK,915-488300-07700-00000-0000-0000-000-000-000-000-000-000,6,PKO-12,1999,0,41.58,3.727619282429867,60,4.0943445622221,511.407232377335,67.8625370522807,8.523453872955583,2.1428216428449858,0.0034,0.0041,0.051,0.29547,0.145072,CWH,1.6302835492491898,0,FALSE,FALSE,-0.148311165724145,-0.544732098944374
PKO,BLOOMFIELD CREEK,915-488300-07700-00000-0000-0000-000-000-000-000-000-000,6,PKO-12,2005,0,41.58,3.727619282429867,1800,7.495541943884256,1048.5899942401,2248.15351564242,0.5825499968000555,-0.5403402658091824,0.0034,0.0041,0.051,0.29547,0.145072,CWH,-0.8145696192436794,0,FALSE,FALSE,-0.148311165724145,-0.544732098944374
PKO,BLOOMFIELD CREEK,915-488300-07700-00000-0000-0000-000-000-000-000-000-000,6,PKO-12,2007,0,41.58,3.727619282429867,900,6.802394763324311,11637.9777654782,1048.5899942401,12.931086406086887,2.5596342113799277,0.0034,0.0041,0.051,0.29547,0.145072,CWH,0.8768892458318005,0,FALSE,FALSE,-0.148311165724145,-0.544732098944374
PKO,BLOOMFIELD CREEK,915-488300-07700-00000-0000-0000-000-000-000-000-000-000,6,PKO-12,2009,0,41.58,3.727619282429867,10000,9.210340371976184,911.815431213993,11637.9777654782,0.0911815431213993,-2.3949027804378855,0.0018,0.0022,0.051,0.29547,0.145072,CWH,1.604652193542091,0,FALSE,FALSE,-0.148311165724145,-0.5697343547359655
PKO,BLOOMFIELD CREEK,915-488300-07700-00000-0000-0000-000-000-000-000-000-000,6,PKO-12,2011,0,41.58,3.727619282429867,800,6.684611727667927,1765.0519456057,911.815431213993,2.206314932007125,0.791323672204462,0.0018,0.0022,0.051,0.29547,0.145072,CWH,0.7408851700104637,0,FALSE,FALSE,-0.148311165724145,-0.5697343547359655
PKO,FIFER COVE CREEK,915-488300-08400-00000-0000-0000-000-000-000-000-000-000,6,PKO-13,1971,0,2.721,1.0009994598011094,200,5.298317366548036,86.3800396818846,258.691726403243,0.431900198409423,-0.8395607396281757,0,0,0.004,0.29115,0.163644,CWH,-0.34080392906905344,0,FALSE,FALSE,-2.0591391783806783,-0.5986843351262291
PKO,FIFER COVE CREEK,915-488300-08400-00000-0000-0000-000-000-000-000-000-000,6,PKO-13,1973,0,2.721,1.0009994598011094,50,3.912023005428146,107.657399223,86.3800396818846,2.15314798446,0.7669309500935337,0,0,0.004,0.29115,0.163644,CWH,-0.20355231452664888,0,FALSE,FALSE,-2.0591391783806783,-0.5986843351262291
PKO,FIFER COVE CREEK,915-488300-08400-00000-0000-0000-000-000-000-000-000-000,6,PKO-13,1975,0,2.721,1.0009994598011094,75,4.31748811353631,344.319547463849,107.657399223,4.590927299517987,1.5240820297067188,0,0,0.004,0.29115,0.163644,CWH,1.2286162579398736,0,FALSE,FALSE,-2.0591391783806783,-0.5986843351262291
PKO,FIFER COVE CREEK,915-488300-08400-00000-0000-0000-000-000-000-000-000-000,6,PKO-13,1977,0,2.721,1.0009994598011094,200,5.298317366548036,50.4711084297269,344.319547463849,0.2523555421486345,-1.3769163042867052,0,0,0.004,0.29115,0.163644,CWH,0.9724829797884954,0,FALSE,FALSE,-2.0591391783806783,-0.5986843351262291
PKO,FIFER COVE CREEK,915-488300-08400-00000-0000-0000-000-000-000-000-000-000,6,PKO-13,1979,0,2.721,1.0009994598011094,30,3.4011973816621555,73.0521325323009,50.4711084297269,2.4350710844100303,0.8899759488846455,0,0,0.004,0.29115,0.163644,CWH,-1.19975713829789,0,FALSE,FALSE,-2.0591391783806783,-0.5986843351262291
PKO,FIFER COVE CREEK,915-488300-08400-00000-0000-0000-000-000-000-000-000-000,6,PKO-13,1981,0,2.721,1.0009994598011094,25,3.2188758248682006,103.12622067607,73.0521325323009,4.1250488270428,1.4170778565754498,0,0,0.004,0.29115,0.163644,CWH,-0.22613906119882837,0,FALSE,FALSE,-2.0591391783806783,-0.5986843351262291
PKO,FIFER COVE CREEK,915-488300-08400-00000-0000-0000-000-000-000-000-000-000,6,PKO-13,1983,0,2.721,1.0009994598011094,60,4.0943445622221,181.977514050384,103.12622067607,3.0329585675064,1.1095385680481524,0,0,0.004,0.29115,0.163644,CWH,0.10267616261581472,0,FALSE,FALSE,-2.0591391783806783,-0.5986843351262291
PKO,FIFER COVE CREEK,915-488300-08400-00000-0000-0000-000-000-000-000-000-000,6,PKO-13,1985,0,2.721,1.0009994598011094,100,4.605170185988092,20.5753052458154,181.977514050384,0.205753052458154,-1.5810786037724114,0,0,0.004,0.29115,0.163644,CWH,-0.9758993397997916,0,FALSE,FALSE,-2.0591391783806783,-0.5986843351262291
PKO,FIFER COVE CREEK,915-488300-08400-00000-0000-0000-000-000-000-000-000-000,6,PKO-13,1987,0,2.721,1.0009994598011094,10,2.302585092994046,88.9603784374499,20.5753052458154,8.89603784374499,2.185605991517275,0,0,0.004,0.29115,0.163644,CWH,0.8862048812919091,0,FALSE,FALSE,-2.0591391783806783,-0.5986843351262291
PKO,FIFER COVE CREEK,915-488300-08400-00000-0000-0000-000-000-000-000-000-000,6,PKO-13,1989,0,2.721,1.0009994598011094,80,4.382026634673881,39.5308617529944,88.9603784374499,0.49413577191242997,-0.7049449576283424,0,0,0.004,0.29115,0.163644,CWH,0.15947767939610902,0,FALSE,FALSE,-2.0591391783806783,-0.5986843351262291
PKO,FIFER COVE CREEK,915-488300-08400-00000-0000-0000-000-000-000-000-000-000,6,PKO-13,1991,0,2.721,1.0009994598011094,30,3.4011973816621555,42.8025950160414,39.5308617529944,1.42675316720138,0.35540135030351844,0,0,0.004,0.29115,0.163644,CWH,-0.18487911555035336,0,FALSE,FALSE,-2.0591391783806783,-0.5986843351262291
PKO,FIFER COVE CREEK,915-488300-08400-00000-0000-0000-000-000-000-000-000-000,6,PKO-13,1997,0,2.721,1.0009994598011094,11,2.3978952727983707,5.46707073626111,12.9536505617666,0.49700643056919186,-0.6991523141982037,0,0,0.004,0.29115,0.163644,CWH,0.8907774948170872,0,FALSE,FALSE,-2.0591391783806783,-0.5986843351262291
PKO,FIFER COVE CREEK,915-488300-08400-00000-0000-0000-000-000-000-000-000-000,6,PKO-13,2009,0,2.721,1.0009994598011094,5500,8.612503371220562,308.729108455595,7094.40766392504,0.05613256517374454,-2.880039150488899,0,0,0.004,0.29115,0.163644,CWH,1.604652193542091,0,FALSE,FALSE,-2.0591391783806783,-0.5986843351262291
PKO,FIFER COVE CREEK,915-488300-08400-00000-0000-0000-000-000-000-000-000-000,6,PKO-13,2011,0,2.721,1.0009994598011094,260,5.560681631015528,4576.97467210233,308.729108455595,17.603748738855117,2.8681118758894257,0,0,0.004,0.29115,0.163644,CWH,0.7408851700104637,0,FALSE,FALSE,-2.0591391783806783,-0.5986843351262291
PKO,DALLY CREEK,915-488300-09100-00000-0000-0000-000-000-000-000-000-000,6,PKO-13,1959,0,5.629,1.7279318064818894,25,3.2188758248682006,393.866089432806,34.3828294086374,15.75464357731224,2.757135152123267,0,0,0.002,0.29028,0.158602,CWH,0.7824977620566573,0,FALSE,FALSE,-1.5497015663542986,-0.5986843351262291
PKO,DALLY CREEK,915-488300-09100-00000-0000-0000-000-000-000-000-000-000,6,PKO-13,1961,0,5.629,1.7279318064818894,200,5.298317366548036,1471.70722046504,393.866089432806,7.358536102325201,1.9958610138171298,0,0,0.002,0.29028,0.158602,CWH,0.00583928468743269,0,FALSE,FALSE,-1.5497015663542986,-0.5986843351262291
PKO,DALLY CREEK,915-488300-09100-00000-0000-0000-000-000-000-000-000-000,6,PKO-13,1969,0,5.629,1.7279318064818894,50,3.912023005428146,32.3364658004053,58.4492810034707,0.646729316008106,-0.435827439860572,0,0,0.002,0.29028,0.158602,CWH,0.09673401232408343,0,FALSE,FALSE,-1.5497015663542986,-0.5986843351262291
PKO,DALLY CREEK,915-488300-09100-00000-0000-0000-000-000-000-000-000-000,6,PKO-13,1971,0,5.629,1.7279318064818894,25,3.2188758248682006,345.520158727538,32.3364658004053,13.82080634910152,2.6261751631715495,0,0,0.002,0.29028,0.158602,CWH,-0.34080392906905344,0,FALSE,FALSE,-1.5497015663542986,-0.5986843351262291
PKO,DALLY CREEK,915-488300-09100-00000-0000-0000-000-000-000-000-000-000,6,PKO-13,1981,0,5.629,1.7279318064818894,25,3.2188758248682006,17.1877034460116,73.0521325323009,0.687508137840464,-0.37468161265260896,0,0,0.002,0.29028,0.158602,CWH,-0.22613906119882837,0,FALSE,FALSE,-1.5497015663542986,-0.5986843351262291
PKO,DALLY CREEK,915-488300-09100-00000-0000-0000-000-000-000-000-000-000,6,PKO-13,1983,0,5.629,1.7279318064818894,10,2.302585092994046,9.09887570251919,17.1877034460116,0.9098875702519191,-0.09443423627778443,0,0,0.002,0.29028,0.158602,CWH,0.10267616261581472,0,FALSE,FALSE,-1.5497015663542986,-0.5986843351262291
PKO,DALLY CREEK,915-488300-09100-00000-0000-0000-000-000-000-000-000-000,6,PKO-13,1991,0,5.629,1.7279318064818894,1,0,5.35032437700518,1.31769539176648,5.35032437700518,1.6771571902858387,0,0,0.002,0.29028,0.158602,CWH,-0.18487911555035336,0,FALSE,FALSE,-1.5497015663542986,-0.5986843351262291
PKO,DALLY CREEK,915-488300-09100-00000-0000-0000-000-000-000-000-000-000,6,PKO-13,1993,0,5.629,1.7279318064818894,5,1.6094379124341003,68.213097297584,5.35032437700518,13.6426194595168,2.613198676464087,0,0,0.002,0.29028,0.158602,CWH,-1.7567819796155162,0,FALSE,FALSE,-1.5497015663542986,-0.5986843351262291
PKO,DALLY CREEK,915-488300-09100-00000-0000-0000-000-000-000-000-000-000,6,PKO-13,1995,0,5.629,1.7279318064818894,60,4.0943445622221,5.88802298262119,68.213097297584,0.09813371637701983,-2.3214242775047076,0,0,0.002,0.29028,0.158602,CWH,-0.5672147431639023,0,FALSE,FALSE,-1.5497015663542986,-0.5986843351262291
PKO,DALLY CREEK,915-488300-09100-00000-0000-0000-000-000-000-000-000-000,6,PKO-13,2003,0,5.629,1.7279318064818894,250,5.521460917862246,1939.82874753117,368.868386390496,7.75931499012468,2.048894055830238,0,0,0.002,0.29028,0.158602,CWH,0.41101277747559006,0,FALSE,FALSE,-1.5497015663542986,-0.5986843351262291