Species,River,WATERSHED_CDE,DFO,CU,BroodYear,hararea_m2_3005,area_km2,ln_area_km2,Spawners,logS,Recruits,Returns,recruitPerSpawner,ln_RS,ECA_age_proxy,ECA_age_proxy_forested_only,lake_cover_pct,var_eaubc_KFACTOR,var_eaubc_MELTONS_R,vri_bec_zone,npgo,portion_reporting_vri_cover1_missing,hatchery_enhancement,year_of_enhacement,ln_area_km2_std,ECA_age_proxy_forested_only_std
PKO,ENSHESHESE RIVER,910-863100-00000-00000-0000-0000-000-000-000-000-000-000,3,PKO-17,1967,0,62.876,4.141164532865991,7000,8.85366542803745,6009.08901152986,16006.0599857738,0.8584412873614086,-0.15263699077781082,0.0118,0.0225,0.022,0.23128,0.173658,CWH,-0.48089809283299456,0,FALSE,FALSE,0.14150329336408823,-0.3026049902258048
PKO,ENSHESHESE RIVER,910-863100-00000-00000-0000-0000-000-000-000-000-000-000,3,PKO-17,1969,894400.208105243,62.876,4.141164532865991,3500,8.160518247477505,23115.418748501,6009.08901152986,6.6044053567145715,1.8877369046579096,0.0278,0.0527,0.022,0.23128,0.173658,CWH,0.09673401232408343,0,FALSE,FALSE,0.14150329336408823,0.09479928604054258
PKO,ENSHESHESE RIVER,910-863100-00000-00000-0000-0000-000-000-000-000-000-000,3,PKO-17,1971,0,62.876,4.141164532865991,15000,9.615805480084347,2885.99324520294,23115.418748501,0.192399549680196,-1.6481810812927917,0.0665,0.1263,0.022,0.23128,0.173658,CWH,-0.34080392906905344,0,FALSE,FALSE,0.14150329336408823,1.0633077209148196
PKO,ENSHESHESE RIVER,910-863100-00000-00000-0000-0000-000-000-000-000-000-000,3,PKO-17,1973,269425.674690997,62.876,4.141164532865991,2000,7.600902459542082,6991.95582334641,2885.99324520294,3.4959779116732053,1.2516131396020493,0.0754,0.1431,0.022,0.23128,0.173658,CWH,-0.20355231452664888,0,FALSE,FALSE,0.14150329336408823,1.28438029844047
PKO,ENSHESHESE RIVER,910-863100-00000-00000-0000-0000-000-000-000-000-000-000,3,PKO-17,1975,0,62.876,4.141164532865991,5000,8.517193191416238,4566.96515894249,6991.95582334641,0.9133930317884981,-0.09058900713213824,0.0754,0.1431,0.022,0.23128,0.173658,CWH,1.2286162579398736,0,FALSE,FALSE,0.14150329336408823,1.28438029844047
PKO,ENSHESHESE RIVER,910-863100-00000-00000-0000-0000-000-000-000-000-000-000,3,PKO-17,1977,5.98419473924423,62.876,4.141164532865991,2000,7.600902459542082,1661.7458411815,4566.96515894249,0.83087292059075,-0.18527841929751107,0.0754,0.1431,0.022,0.23128,0.173658,CWH,0.9724829797884954,0,FALSE,FALSE,0.14150329336408823,1.28438029844047
PKO,ENSHESHESE RIVER,910-863100-00000-00000-0000-0000-000-000-000-000-000-000,3,PKO-17,1979,0,62.876,4.141164532865991,1000,6.907755278982137,4495.26770132805,1661.7458411815,4.49526770132805,1.5030252215068634,0.075,0.1423,0.022,0.23128,0.173658,CWH,-1.19975713829789,0,FALSE,FALSE,0.14150329336408823,1.2738530328440105
PKO,ENSHESHESE RIVER,910-863100-00000-00000-0000-0000-000-000-000-000-000-000,3,PKO-17,1981,0,62.876,4.141164532865991,2500,7.824046010856292,16557.2689823286,4495.26770132805,6.62290759293144,1.8905344869566822,0.0617,0.1171,0.022,0.23128,0.173658,CWH,-0.22613906119882837,0,FALSE,FALSE,0.14150329336408823,0.9422441665555349
PKO,ENSHESHESE RIVER,910-863100-00000-00000-0000-0000-000-000-000-000-000-000,3,PKO-17,1983,0,62.876,4.141164532865991,5000,8.517193191416238,20514.9866008314,16557.2689823286,4.1029973201662795,1.4117177603197626,0.0565,0.1072,0.022,0.23128,0.173658,CWH,0.10267616261581472,0,FALSE,FALSE,0.14150329336408823,0.8119692547993483
PKO,ENSHESHESE RIVER,910-863100-00000-00000-0000-0000-000-000-000-000-000-000,3,PKO-17,1985,0,62.876,4.141164532865991,10000,9.210340371976184,26916.6532896507,20514.9866008314,2.6916653289650703,0.9901600834615658,0.0596,0.1132,0.022,0.23128,0.173658,CWH,-0.9758993397997916,0,FALSE,FALSE,0.14150329336408823,0.8909237467727948
PKO,ENSHESHESE RIVER,910-863100-00000-00000-0000-0000-000-000-000-000-000-000,3,PKO-17,1987,14.9540506892936,62.876,4.141164532865991,12000,9.392661928770137,47862.0136614556,26916.6532896507,3.9885011384546334,1.3834155058032882,0.0596,0.1132,0.022,0.23128,0.173658,CWH,0.8862048812919091,0,FALSE,FALSE,0.14150329336408823,0.8909237467727948
PKO,ENSHESHESE RIVER,910-863100-00000-00000-0000-0000-000-000-000-000-000-000,3,PKO-17,1989,0,62.876,4.141164532865991,20000,9.903487552536127,62300.0256785131,47862.0136614556,3.115001283925655,1.1362295644145017,0.0604,0.1146,0.022,0.23128,0.173658,CWH,0.15947767939610902,0,FALSE,FALSE,0.14150329336408823,0.9093464615665988
PKO,ENSHESHESE RIVER,910-863100-00000-00000-0000-0000-000-000-000-000-000-000,3,PKO-17,1991,177750.224900556,62.876,4.141164532865991,12000,9.392661928770137,38793.6530389617,62300.0256785131,3.232804419913475,1.1733500019902603,0.0367,0.0697,0.022,0.23128,0.173658,CWH,-0.18487911555035336,0,FALSE,FALSE,0.14150329336408823,0.31850367996530765
PKO,ENSHESHESE RIVER,910-863100-00000-00000-0000-0000-000-000-000-000-000-000,3,PKO-17,1993,0,62.876,4.141164532865991,12000,9.392661928770137,25035.5524246984,38793.6530389617,2.086296035391533,0.7353902618458574,0.029,0.055,0.022,0.23128,0.173658,CWH,-1.7567819796155162,0,FALSE,FALSE,0.14150329336408823,0.1250651746303638
PKO,ENSHESHESE RIVER,910-863100-00000-00000-0000-0000-000-000-000-000-000-000,3,PKO-17,1995,0,62.876,4.141164532865991,10000,9.210340371976184,2593.19191381977,25035.5524246984,0.259319191381977,-1.3496955769048797,0.0258,0.0489,0.022,0.23128,0.173658,CWH,-0.5672147431639023,0,FALSE,FALSE,0.14150329336408823,0.04479477445735982
PKO,ENSHESHESE RIVER,910-863100-00000-00000-0000-0000-000-000-000-000-000-000,3,PKO-17,1997,0,62.876,4.141164532865991,1500,7.313220387090301,39227.8781964967,2593.19191381977,26.151918797664464,3.263922564402729,0.0258,0.0489,0.022,0.23128,0.173658,CWH,0.8907774948170872,0,FALSE,FALSE,0.14150329336408823,0.04479477445735982
PKO,ENSHESHESE RIVER,910-863100-00000-00000-0000-0000-000-000-000-000-000-000,3,PKO-17,1999,0,62.876,4.141164532865991,15000,9.615805480084347,21259.5920214276,39227.8781964967,1.41730613476184,0.34875798166638977,0.0254,0.0482,0.022,0.23128,0.173658,CWH,1.6302835492491898,0,FALSE,FALSE,0.14150329336408823,0.035583417060457735
PKO,ENSHESHESE RIVER,910-863100-00000-00000-0000-0000-000-000-000-000-000-000,3,PKO-17,2001,0,62.876,4.141164532865991,15000,9.615805480084347,20910.6682160022,21259.5920214276,1.39404454773348,0.33220926859492783,0.0254,0.0482,0.022,0.23128,0.173658,CWH,1.9190067210816288,0,FALSE,FALSE,0.14150329336408823,0.035583417060457735
PKO,ENSHESHESE RIVER,910-863100-00000-00000-0000-0000-000-000-000-000-000-000,3,PKO-17,2003,0,62.876,4.141164532865991,15000,9.615805480084347,28752.5221838252,20910.6682160022,1.9168348122550134,0.6506752904263122,0.024,0.0456,0.022,0.23128,0.173658,CWH,0.41101277747559006,0,FALSE,FALSE,0.14150329336408823,0.0013698038719642792
PKO,ENSHESHESE RIVER,910-863100-00000-00000-0000-0000-000-000-000-000-000-000,3,PKO-17,2005,0,62.876,4.141164532865991,20000,9.903487552536127,58608.3252973333,28752.5221838252,2.930416264866665,1.075144482858364,0.0219,0.0416,0.022,0.23128,0.173658,CWH,-0.8145696192436794,0,FALSE,FALSE,0.14150329336408823,-0.05126652411033344
PKO,ENSHESHESE RIVER,910-863100-00000-00000-0000-0000-000-000-000-000-000-000,3,PKO-17,2007,0,62.876,4.141164532865991,36450,10.503696737436805,17324.747166557,58608.3252973333,0.47530170552968454,-0.7438055070461107,0.0219,0.0416,0.022,0.23128,0.173658,CWH,0.8768892458318005,0,FALSE,FALSE,0.14150329336408823,-0.05126652411033344
PKO,ENSHESHESE RIVER,910-863100-00000-00000-0000-0000-000-000-000-000-000-000,3,PKO-17,2009,0,62.876,4.141164532865991,13600,9.517825071724143,4133.06426864514,17324.747166557,0.30390178445920146,-1.1910507072135113,0.0208,0.0394,0.022,0.23128,0.173658,CWH,1.604652193542091,0,FALSE,FALSE,0.14150329336408823,-0.08021650450059715
PKO,KHUTZEYMATEEN RIVER,910-887500-00000-00000-0000-0000-000-000-000-000-000-000,3,PKO-17,1955,0,371.366,5.91718809922456,1500,7.313220387090301,7382.45689051211,2675.58739850206,4.9216379270080735,1.5936413870948258,0.0058,0.0193,0.008,-0.0023,0.189763,MH,-0.07106879047729574,3.2231639319196e-4,FALSE,FALSE,1.3861489728135394,-0.3447140526116429
PKO,KHUTZEYMATEEN RIVER,910-887500-00000-00000-0000-0000-000-000-000-000-000-000,3,PKO-17,1957,0,371.366,5.91718809922456,3500,8.160518247477505,17574.0829712139,7382.45689051211,5.021166563203971,1.6136622898152262,0.0058,0.0193,0.008,-0.0023,0.189763,MH,-0.3276691034772351,3.2231639319196e-4,FALSE,FALSE,1.3861489728135394,-0.3447140526116429
PKO,KHUTZEYMATEEN RIVER,910-887500-00000-00000-0000-0000-000-000-000-000-000-000,3,PKO-17,1959,0,371.366,5.91718809922456,10000,9.210340371976184,10045.3750091432,17574.0829712139,1.00453750091432,0.00452723749219323,0.0055,0.0185,0.008,-0.0023,0.189763,MH,0.7824977620566573,3.2231639319196e-4,FALSE,FALSE,1.3861489728135394,-0.35524131820810245
PKO,KHUTZEYMATEEN RIVER,910-887500-00000-00000-0000-0000-000-000-000-000-000-000,3,PKO-17,1961,0,371.366,5.91718809922456,6000,8.699514748210191,45023.6738078776,10045.3750091432,7.503945634646267,2.0154289668277685,0.0055,0.0185,0.008,-0.0023,0.189763,MH,0.00583928468743269,3.2231639319196e-4,FALSE,FALSE,1.3861489728135394,-0.35524131820810245
PKO,KHUTZEYMATEEN RIVER,910-887500-00000-00000-0000-0000-000-000-000-000-000-000,3,PKO-17,1963,0,371.366,5.91718809922456,35000,10.46310334047155,63194.1922645094,45023.6738078776,1.8055483504145544,0.5908643408919335,0.0064,0.0213,0.008,-0.0023,0.189763,MH,0.5797944041154652,3.2231639319196e-4,FALSE,FALSE,1.3861489728135394,-0.31839588862049406
PKO,KHUTZEYMATEEN RIVER,910-887500-00000-00000-0000-0000-000-000-000-000-000-000,3,PKO-17,1965,0,371.366,5.91718809922456,35000,10.46310334047155,1714.93499847577,63194.1922645094,0.04899814281359343,-3.0159728833532,0.006,0.0201,0.008,-0.0023,0.189763,MH,-0.7093794641235007,3.2231639319196e-4,FALSE,FALSE,1.3861489728135394,-0.3341867870151834
PKO,KHUTZEYMATEEN RIVER,910-887500-00000-00000-0000-0000-000-000-000-000-000-000,3,PKO-17,1967,32370.8126794251,371.366,5.91718809922456,750,6.620073206530356,12876.6193104211,1714.93499847577,17.168825747228134,2.843095282776178,0.0061,0.0203,0.008,-0.0023,0.189763,MH,-0.48089809283299456,3.2231639319196e-4,FALSE,FALSE,1.3861489728135394,-0.3315549706160685
PKO,KHUTZEYMATEEN RIVER,910-887500-00000-00000-0000-0000-000-000-000-000-000-000,3,PKO-17,1969,0,371.366,5.91718809922456,7500,8.922658299524402,5393.59770798356,12876.6193104211,0.7191463610644747,-0.32969037999583045,0.0056,0.0188,0.008,-0.0023,0.189763,MH,0.09673401232408343,3.2231639319196e-4,FALSE,FALSE,1.3861489728135394,-0.3512935936094301
PKO,KHUTZEYMATEEN RIVER,910-887500-00000-00000-0000-0000-000-000-000-000-000-000,3,PKO-17,1971,0,371.366,5.91718809922456,3500,8.160518247477505,14429.9662260147,5393.59770798356,4.122847493147057,1.4165440637481506,0.0056,0.0188,0.008,-0.0023,0.189763,MH,-0.34080392906905344,3.2231639319196e-4,FALSE,FALSE,1.3861489728135394,-0.3512935936094301
PKO,KHUTZEYMATEEN RIVER,910-887500-00000-00000-0000-0000-000-000-000-000-000-000,3,PKO-17,1973,0,371.366,5.91718809922456,10000,9.210340371976184,6991.95582334641,14429.9662260147,0.6991955823346411,-0.357824772832051,0.0054,0.0181,0.008,-0.0023,0.189763,MH,-0.20355231452664888,3.2231639319196e-4,FALSE,FALSE,1.3861489728135394,-0.3605049510063322
PKO,KHUTZEYMATEEN RIVER,910-887500-00000-00000-0000-0000-000-000-000-000-000-000,3,PKO-17,1975,0,371.366,5.91718809922456,5000,8.517193191416238,34252.2386920687,6991.95582334641,6.85044773841374,1.924314013410127,0.0051,0.0172,0.008,-0.0023,0.189763,MH,1.2286162579398736,3.2231639319196e-4,FALSE,FALSE,1.3861489728135394,-0.3723481248023492
PKO,KHUTZEYMATEEN RIVER,910-887500-00000-00000-0000-0000-000-000-000-000-000-000,3,PKO-17,1977,0,371.366,5.91718809922456,15000,9.615805480084347,2492.61876177225,34252.2386920687,0.16617458411815,-1.7947163317316115,0.0051,0.0172,0.008,-0.0023,0.189763,MH,0.9724829797884954,3.2231639319196e-4,FALSE,FALSE,1.3861489728135394,-0.3723481248023492
PKO,KHUTZEYMATEEN RIVER,910-887500-00000-00000-0000-0000-000-000-000-000-000-000,3,PKO-17,1979,0,371.366,5.91718809922456,1500,7.313220387090301,26971.6062079683,2492.61876177225,17.9810708053122,2.889319582626754,0.0051,0.0171,0.008,-0.0023,0.189763,MH,-1.19975713829789,3.2231639319196e-4,FALSE,FALSE,1.3861489728135394,-0.3736640330019066
PKO,KHUTZEYMATEEN RIVER,910-887500-00000-00000-0000-0000-000-000-000-000-000-000,3,PKO-17,1981,0,371.366,5.91718809922456,15000,9.615805480084347,99343.6138939713,26971.6062079683,6.62290759293142,1.8905344869566794,0.0051,0.0171,0.008,-0.0023,0.189763,MH,-0.22613906119882837,3.2231639319196e-4,FALSE,FALSE,1.3861489728135394,-0.3736640330019066
PKO,KHUTZEYMATEEN RIVER,910-887500-00000-00000-0000-0000-000-000-000-000-000-000,3,PKO-17,1983,0,371.366,5.91718809922456,30000,10.308952660644293,102574.933004157,99343.6138939713,3.4191644334719,1.229396203525808,0.0039,0.013,0.008,-0.0023,0.189763,MH,0.10267616261581472,3.2231639319196e-4,FALSE,FALSE,1.3861489728135394,-0.4276162691837618
PKO,KHUTZEYMATEEN RIVER,910-887500-00000-00000-0000-0000-000-000-000-000-000-000,3,PKO-17,1985,0,371.366,5.91718809922456,50000,10.819778284410283,112152.722040211,102574.933004157,2.24305444080422,0.8078385266676089,0.0032,0.0108,0.008,-0.0023,0.189763,MH,-0.9758993397997916,3.2231639319196e-4,FALSE,FALSE,1.3861489728135394,-0.4565662495740255
PKO,KHUTZEYMATEEN RIVER,910-887500-00000-00000-0000-0000-000-000-000-000-000-000,3,PKO-17,1987,0,371.366,5.91718809922456,50000,10.819778284410283,167517.047815095,112152.722040211,3.3503409563019,1.2090621186585129,0.0032,0.0108,0.008,-0.0023,0.189763,MH,0.8862048812919091,3.2231639319196e-4,FALSE,FALSE,1.3861489728135394,-0.4565662495740255
PKO,KHUTZEYMATEEN RIVER,910-887500-00000-00000-0000-0000-000-000-000-000-000-000,3,PKO-17,1989,0,371.366,5.91718809922456,70000,11.156250521031495,285541.784359852,167517.047815095,4.079168347997886,1.4058931313636054,0.003,0.0101,0.008,-0.0023,0.189763,MH,0.15947767939610902,3.2231639319196e-4,FALSE,FALSE,1.3861489728135394,-0.46577760697092757
PKO,KHUTZEYMATEEN RIVER,910-887500-00000-00000-0000-0000-000-000-000-000-000-000,3,PKO-17,1991,0,371.366,5.91718809922456,55000,10.915088464214607,113148.154696972,285541.784359852,2.0572391763085816,0.7213648782472062,0.003,0.0101,0.008,-0.0023,0.189763,MH,-0.18487911555035336,3.2231639319196e-4,FALSE,FALSE,1.3861489728135394,-0.46577760697092757
PKO,KHUTZEYMATEEN RIVER,910-887500-00000-00000-0000-0000-000-000-000-000-000-000,3,PKO-17,1993,0,371.366,5.91718809922456,35000,10.46310334047155,100142.209698794,113148.154696972,2.8612059913941144,1.0512432112643388,0.0022,0.0072,0.008,-0.0023,0.189763,MH,-1.7567819796155162,3.2231639319196e-4,FALSE,FALSE,1.3861489728135394,-0.5039389447580934
PKO,KHUTZEYMATEEN RIVER,910-887500-00000-00000-0000-0000-000-000-000-000-000-000,3,PKO-17,1995,0,371.366,5.91718809922456,40000,10.596634733096073,34575.8921842636,100142.209698794,0.8643973046065899,-0.14572277257894398,0.0013,0.0043,0.008,-0.0023,0.189763,MH,-0.5672147431639023,3.2231639319196e-4,FALSE,FALSE,1.3861489728135394,-0.5421002825452592
PKO,KHUTZEYMATEEN RIVER,910-887500-00000-00000-0000-0000-000-000-000-000-000-000,3,PKO-17,1997,0,371.366,5.91718809922456,20000,9.903487552536127,130759.593988322,34575.8921842636,6.5379796994161,1.8776282032828362,0.0013,0.0043,0.008,-0.0023,0.189763,MH,0.8907774948170872,3.2231639319196e-4,FALSE,FALSE,1.3861489728135394,-0.5421002825452592
PKO,KHUTZEYMATEEN RIVER,910-887500-00000-00000-0000-0000-000-000-000-000-000-000,3,PKO-17,1999,0,371.366,5.91718809922456,50000,10.819778284410283,325980.410995223,130759.593988322,6.51960821990446,1.8748142851614384,0.0012,0.0042,0.008,-0.0023,0.189763,MH,1.6302835492491898,3.2231639319196e-4,FALSE,FALSE,1.3861489728135394,-0.5434161907448165
PKO,KHUTZEYMATEEN RIVER,910-887500-00000-00000-0000-0000-000-000-000-000-000-000,3,PKO-17,2001,0,371.366,5.91718809922456,230000,12.345834587905333,278808.909546696,325980.410995223,1.2122126502030262,0.19244732621976918,0.0012,0.0042,0.008,-0.0023,0.189763,MH,1.9190067210816288,3.2231639319196e-4,FALSE,FALSE,1.3861489728135394,-0.5434161907448165
PKO,KHUTZEYMATEEN RIVER,910-887500-00000-00000-0000-0000-000-000-000-000-000-000,3,PKO-17,2003,0,371.366,5.91718809922456,200000,12.206072645530174,287525.221838252,278808.909546696,1.4376261091912599,0.3629932179745312,9e-4,0.0029,0.008,-0.0023,0.189763,MH,0.41101277747559006,3.2231639319196e-4,FALSE,FALSE,1.3861489728135394,-0.5605229973390633
PKO,KHUTZEYMATEEN RIVER,910-887500-00000-00000-0000-0000-000-000-000-000-000-000,3,PKO-17,2005,0,371.366,5.91718809922456,200000,12.206072645530174,112553.711133425,287525.221838252,0.5627685556671249,-0.5748868265409874,8e-4,0.0025,0.008,-0.0023,0.189763,MH,-0.8145696192436794,3.2231639319196e-4,FALSE,FALSE,1.3861489728135394,-0.565786630137293
PKO,KHUTZEYMATEEN RIVER,910-887500-00000-00000-0000-0000-000-000-000-000-000-000,3,PKO-17,2007,0,371.366,5.91718809922456,70000,11.156250521031495,101910.277450335,112553.711133425,1.455861106433357,0.37559755129106975,8e-4,0.0025,0.008,-0.0023,0.189763,MH,0.8768892458318005,3.2231639319196e-4,FALSE,FALSE,1.3861489728135394,-0.565786630137293
PKO,KHUTZEYMATEEN RIVER,910-887500-00000-00000-0000-0000-000-000-000-000-000-000,3,PKO-17,2009,0,371.366,5.91718809922456,80000,11.289781913656018,24562.2105108054,101910.277450335,0.3070276313850675,-1.1808175309334825,7e-4,0.0025,0.008,-0.0023,0.189763,MH,1.604652193542091,3.2231639319196e-4,FALSE,FALSE,1.3861489728135394,-0.565786630137293
PKO,KHUTZEYMATEEN RIVER,910-887500-00000-00000-0000-0000-000-000-000-000-000-000,3,PKO-17,2011,0,371.366,5.91718809922456,20800,9.94270826568941,168653.812592996,24562.2105108054,8.108356374663268,2.092895181085011,7e-4,0.0025,0.008,-0.0023,0.189763,MH,0.7408851700104637,3.2231639319196e-4,FALSE,FALSE,1.3861489728135394,-0.565786630137293
PKO,KHUTZEYMATEEN RIVER,910-887500-00000-00000-0000-0000-000-000-000-000-000-000,3,PKO-17,2013,0,371.366,5.91718809922456,134000,11.805595078933049,124667.248084521,168653.812592996,0.930352597645679,-0.0721916274357844,4e-4,0.0013,0.008,-0.0023,0.189763,MH,-0.5528640906240193,3.2231639319196e-4,FALSE,FALSE,1.3861489728135394,-0.5815775285319824
PKO,KSI X'ANMAS,910-896600-00000-00000-0000-0000-000-000-000-000-000-000,3,PKO-17,1955,0,321.135,5.771861595466795,400,5.991464547107982,3163.91009593376,713.489972933883,7.9097752398344,2.068099366689941,0.0065,0.0125,0.01,0.22757,0.123045,CWH,-0.07106879047729574,2.2334328895148e-4,FALSE,FALSE,1.284303474568007,-0.4341958101815489
PKO,KSI X'ANMAS,910-896600-00000-00000-0000-0000-000-000-000-000-000-000,3,PKO-17,1957,0,321.135,5.771861595466795,1500,7.313220387090301,87870.4148560697,3163.91009593376,58.58027657071314,4.070398062636533,0.0065,0.0125,0.01,0.22757,0.123045,CWH,-0.3276691034772351,2.2334328895148e-4,FALSE,FALSE,1.284303474568007,-0.4341958101815489
PKO,KSI X'ANMAS,910-896600-00000-00000-0000-0000-000-000-000-000-000-000,3,PKO-17,1959,0,321.135,5.771861595466795,50000,10.819778284410283,184165.208500958,87870.4148560697,3.6833041700191598,1.3038102216224503,0.0063,0.0121,0.01,0.22757,0.123045,CWH,0.7824977620566573,2.2334328895148e-4,FALSE,FALSE,1.284303474568007,-0.4394594429797787
PKO,KSI X'ANMAS,910-896600-00000-00000-0000-0000-000-000-000-000-000-000,3,PKO-17,1961,0,321.135,5.771861595466795,110000,11.608235644774552,96479.3010168805,184165.208500958,0.8770845546989137,-0.13115187768969683,0.0063,0.0121,0.01,0.22757,0.123045,CWH,0.00583928468743269,2.2334328895148e-4,FALSE,FALSE,1.284303474568007,-0.4394594429797787
PKO,KSI X'ANMAS,910-896600-00000-00000-0000-0000-000-000-000-000-000-000,3,PKO-17,1963,0,321.135,5.771861595466795,75000,11.225243392518447,135416.126281092,96479.3010168805,1.80554835041456,0.5908643408919365,0.0063,0.0121,0.01,0.22757,0.123045,CWH,0.5797944041154652,2.2334328895148e-4,FALSE,FALSE,1.284303474568007,-0.4394594429797787