Species,River,WATERSHED_CDE,DFO,CU,BroodYear,hararea_m2_3005,area_km2,ln_area_km2,Spawners,logS,Recruits,Returns,recruitPerSpawner,ln_RS,ECA_age_proxy,ECA_age_proxy_forested_only,lake_cover_pct,var_eaubc_KFACTOR,var_eaubc_MELTONS_R,vri_bec_zone,npgo,portion_reporting_vri_cover1_missing,hatchery_enhancement,year_of_enhacement,ln_area_km2_std,ECA_age_proxy_forested_only_std
PKO,PALLANT CREEK,950-065000-00000-00000-0000-0000-000-000-000-000-000-000,2,PKO-9,2003,0,82.619,4.414239678288494,153,5.030437921392435,64,153,0.41830065359477125,-0.8715548380327636,0.0725,0.0799,0.078,0.17922,0.125673,CWH,0.41101277747559006,0,FALSE,FALSE,0.3328756413177914,0.45272631632016674
PKO,PALLANT CREEK,950-065000-00000-00000-0000-0000-000-000-000-000-000-000,2,PKO-9,2005,0,82.619,4.414239678288494,64,4.1588830833596715,144,64,2.25,0.8109302162163288,0.0649,0.0716,0.078,0.17922,0.125673,CWH,-0.8145696192436794,0,FALSE,FALSE,0.3328756413177914,0.34350593575689903
PKO,PALLANT CREEK,950-065000-00000-00000-0000-0000-000-000-000-000-000-000,2,PKO-9,2007,19762.3124064142,82.619,4.414239678288494,144,4.969813299576001,489,144,3.3958333333333335,1.2225491898988714,0.0676,0.0745,0.078,0.17922,0.125673,CWH,0.8768892458318005,0,FALSE,FALSE,0.3328756413177914,0.3816672735440649
PKO,BIG GOOSE CREEK,950-116200-00000-00000-0000-0000-000-000-000-000-000-000,2,PKO-9,1963,0,9.806,2.2829944432290414,250,5.521460917862246,752.943352695379,250.007546127769,3.0117734107815157,1.1025290782836192,0.0066,0.0068,0,0.1,0.025734,CWH,0.5797944041154652,0,FALSE,FALSE,-1.160711056466164,-0.5092025775563231
PKO,BIG GOOSE CREEK,950-116200-00000-00000-0000-0000-000-000-000-000-000-000,2,PKO-9,1965,0,9.806,2.2829944432290414,750,6.620073206530356,410.827279410788,752.943352695379,0.5477697058810507,-0.6019003251042986,0.0066,0.0068,0,0.1,0.025734,CWH,-0.7093794641235007,0,FALSE,FALSE,-1.160711056466164,-0.5092025775563231
PKO,BIG GOOSE CREEK,950-116200-00000-00000-0000-0000-000-000-000-000-000-000,2,PKO-9,1967,6.18263777985703,9.806,2.2829944432290414,400,5.991464547107982,437.988974107175,410.827279410788,1.0949724352679375,0.0907291896803221,0.1132,0.1158,0,0.1,0.025734,CWH,-0.48089809283299456,0,FALSE,FALSE,-1.160711056466164,0.9251373599612882
PKO,BIG GOOSE CREEK,950-116200-00000-00000-0000-0000-000-000-000-000-000-000,2,PKO-9,1973,1189692.65455011,9.806,2.2829944432290414,25,3.2188758248682006,295.076271757338,25.1392063187142,11.803050870293522,2.468358046383719,0.2355,0.2408,0,0.1,0.025734,CWH,-0.20355231452664888,0,FALSE,FALSE,-1.160711056466164,2.5700226094080905
PKO,BIG GOOSE CREEK,950-116200-00000-00000-0000-0000-000-000-000-000-000-000,2,PKO-9,1975,420465.570841659,9.806,2.2829944432290414,250,5.521460917862246,242.806944723927,295.076271757338,0.971227778895708,-0.02919425643386316,0.3034,0.3101,0,0.1,0.025734,CWH,1.2286162579398736,0,FALSE,FALSE,-1.160711056466164,3.481946991701397
PKO,BIG GOOSE CREEK,950-116200-00000-00000-0000-0000-000-000-000-000-000-000,2,PKO-9,1977,1211620.18899685,9.806,2.2829944432290414,200,5.298317366548036,225,242.806944723927,1.125,0.11778303565638346,0.5495,0.5617,0,0.1,0.025734,CWH,0.9724829797884954,0,FALSE,FALSE,-1.160711056466164,6.79277202178792
PKO,BIG GOOSE CREEK,950-116200-00000-00000-0000-0000-000-000-000-000-000-000,2,PKO-9,1979,229653.958882444,9.806,2.2829944432290414,225,5.41610040220442,203.437662564811,225,0.9041673891769378,-0.10074077071215018,0.6145,0.6282,0,0.1,0.025734,CWH,-1.19975713829789,0,FALSE,FALSE,-1.160711056466164,7.667850974493619
PKO,BIG GOOSE CREEK,950-116200-00000-00000-0000-0000-000-000-000-000-000-000,2,PKO-9,1981,65517.7330042146,9.806,2.2829944432290414,200,5.298317366548036,400,203.437662564811,2,0.6931471805599453,0.6357,0.6498,0,0.1,0.025734,CWH,-0.22613906119882837,0,FALSE,FALSE,-1.160711056466164,7.952087145598027
PKO,BIG GOOSE CREEK,950-116200-00000-00000-0000-0000-000-000-000-000-000-000,2,PKO-9,1983,26910.1073930582,9.806,2.2829944432290414,400,5.991464547107982,928.648175752313,400,2.3216204393807827,0.8422654071152265,0.6449,0.6592,0,0.1,0.025734,CWH,0.10267616261581472,0,FALSE,FALSE,-1.160711056466164,8.075782516356426
PKO,BIG GOOSE CREEK,950-116200-00000-00000-0000-0000-000-000-000-000-000-000,2,PKO-9,1985,0,9.806,2.2829944432290414,700,6.551080335043404,100.381999684519,928.648175752313,0.14340285669217,-1.9420974298702007,0.6083,0.6218,0,0.1,0.025734,CWH,-0.9758993397997916,0,FALSE,FALSE,-1.160711056466164,7.583632849721943
PKO,BIG GOOSE CREEK,950-116200-00000-00000-0000-0000-000-000-000-000-000-000,2,PKO-9,1987,0,9.806,2.2829944432290414,100,4.605170185988092,2.13870390742733,100.381999684519,0.021387039074273303,-3.844970191169717,0.507,0.5183,0,0.1,0.025734,CWH,0.8862048812919091,0,FALSE,FALSE,-1.160711056466164,6.221667863179991
PKO,BIG GOOSE CREEK,950-116200-00000-00000-0000-0000-000-000-000-000-000-000,2,PKO-9,1989,0,9.806,2.2829944432290414,2,0.6931471805599453,45.2023555771179,2.13870390742733,22.60117778855895,3.1180020194583316,0.4649,0.4753,0,0.1,0.025734,CWH,0.15947767939610902,0,FALSE,FALSE,-1.160711056466164,5.655827337370291
PKO,BIG GOOSE CREEK,950-116200-00000-00000-0000-0000-000-000-000-000-000-000,2,PKO-9,1991,0,9.806,2.2829944432290414,45,3.8066624897703196,3.01796590576755,45.2023555771179,0.06706590901705667,-2.7020794264508496,0.4533,0.4634,0,0.1,0.025734,CWH,-0.18487911555035336,0,FALSE,FALSE,-1.160711056466164,5.499234261622955
PKO,BIG GOOSE CREEK,950-116200-00000-00000-0000-0000-000-000-000-000-000-000,2,PKO-9,1993,0,9.806,2.2829944432290414,3,1.0986122886681098,2.00813211978348,3.01796590576755,0.66937737326116,-0.40140729229821487,0.4491,0.4591,0,0.1,0.025734,CWH,-1.7567819796155162,0,FALSE,FALSE,-1.160711056466164,5.442650209041985
PKO,DEENA CREEK,950-974300-00000-00000-0000-0000-000-000-000-000-000-000,2,PKO-9,1963,568942.786976012,67.478,4.21180161882716,750,6.620073206530356,7529.43352695379,750.022638383308,10.039244702605053,2.306501882609555,0.0165,0.0166,0.002,-7.13857,0.100466,CWH,0.5797944041154652,0,FALSE,FALSE,0.19100609586953524,-0.38024357399969383
PKO,DEENA CREEK,950-974300-00000-00000-0000-0000-000-000-000-000-000-000,2,PKO-9,1965,2489637.22882902,67.478,4.21180161882716,7500,8.922658299524402,1027.06819852697,7529.43352695379,0.13694242647026267,-1.9881946862241893,0.0676,0.068,0.002,-7.13857,0.100466,CWH,-0.7093794641235007,0,FALSE,FALSE,0.19100609586953524,0.29613324057283125
PKO,DEENA CREEK,950-974300-00000-00000-0000-0000-000-000-000-000-000-000,2,PKO-9,1967,3722942.89887731,67.478,4.21180161882716,1000,6.907755278982137,547.486217633968,1027.06819852697,0.547486217633968,-0.6024179908796247,0.1228,0.1235,0.002,-7.13857,0.100466,CWH,-0.48089809283299456,0,FALSE,FALSE,0.19100609586953524,1.0264622913272115
PKO,DEENA CREEK,950-974300-00000-00000-0000-0000-000-000-000-000-000-000,2,PKO-9,1969,1458628.88618772,67.478,4.21180161882716,500,6.214608098422191,50.7133936251211,547.486217633968,0.1014267872502422,-2.2884180486473737,0.1558,0.1567,0.002,-7.13857,0.100466,CWH,0.09673401232408343,0,FALSE,FALSE,0.19100609586953524,1.463343813580282
PKO,DEENA CREEK,950-974300-00000-00000-0000-0000-000-000-000-000-000-000,2,PKO-9,1971,937540.280467847,67.478,4.21180161882716,50,3.912023005428146,402.227301099427,50.7133936251211,8.04454602198854,2.0849943490185052,0.1811,0.1822,0.002,-7.13857,0.100466,CWH,-0.34080392906905344,0,FALSE,FALSE,0.19100609586953524,1.7989004044674297
PKO,DEENA CREEK,950-974300-00000-00000-0000-0000-000-000-000-000-000-000,2,PKO-9,1973,2760023.09705744,67.478,4.21180161882716,400,5.991464547107982,354.091526108806,402.227301099427,0.885228815272015,-0.12190911906210655,0.2359,0.2372,0.002,-7.13857,0.100466,CWH,-0.20355231452664888,0,FALSE,FALSE,0.19100609586953524,2.5226499142240226
PKO,DEENA CREEK,950-974300-00000-00000-0000-0000-000-000-000-000-000-000,2,PKO-9,1975,603738.705954791,67.478,4.21180161882716,300,5.703782474656201,242.806944723927,354.091526108806,0.80935648241309,-0.2115158132278178,0.2448,0.2462,0.002,-7.13857,0.100466,CWH,1.2286162579398736,0,FALSE,FALSE,0.19100609586953524,2.641081652184192
PKO,DEENA CREEK,950-974300-00000-00000-0000-0000-000-000-000-000-000-000,2,PKO-9,1977,1191058.41109973,67.478,4.21180161882716,200,5.298317366548036,1200,242.806944723927,6,1.791759469228055,0.259,0.2605,0.002,-7.13857,0.100466,CWH,0.9724829797884954,0,FALSE,FALSE,0.19100609586953524,2.8292565247209067
PKO,DEENA CREEK,950-974300-00000-00000-0000-0000-000-000-000-000-000-000,2,PKO-9,1983,3453907.79703355,67.478,4.21180161882716,100,4.605170185988092,424.524880343915,100,4.24524880343915,1.4458004289854858,0.3207,0.3225,0.002,-7.13857,0.100466,CWH,0.10267616261581472,0,FALSE,FALSE,0.19100609586953524,3.64511960844652
PKO,DEENA CREEK,950-974300-00000-00000-0000-0000-000-000-000-000-000-000,2,PKO-9,1985,1534656.13068514,67.478,4.21180161882716,320,5.768320995793772,150.572999526779,424.524880343915,0.47054062352118436,-0.7538729825124008,0.3344,0.3363,0.002,-7.13857,0.100466,CWH,-0.9758993397997916,0,FALSE,FALSE,0.19100609586953524,3.8267149399854468
PKO,DEENA CREEK,950-974300-00000-00000-0000-0000-000-000-000-000-000-000,2,PKO-9,1987,1674308.92308674,67.478,4.21180161882716,150,5.0106352940962555,21.3870390742733,150.572999526779,0.14258026049515535,-1.9478502062838359,0.3493,0.3513,0.002,-7.13857,0.100466,CWH,0.8862048812919091,0,FALSE,FALSE,0.19100609586953524,4.024101169919063
PKO,DEENA CREEK,950-974300-00000-00000-0000-0000-000-000-000-000-000-000,2,PKO-9,1989,2203942.92558178,67.478,4.21180161882716,20,2.995732273553991,251.124197650655,21.3870390742733,12.55620988253275,2.5302153545562125,0.351,0.353,0.002,-7.13857,0.100466,CWH,0.15947767939610902,0,FALSE,FALSE,0.19100609586953524,4.046471609311539
PKO,DEENA CREEK,950-974300-00000-00000-0000-0000-000-000-000-000-000-000,2,PKO-9,1991,801698.448305257,67.478,4.21180161882716,250,5.521460917862246,60.3593181153509,251.124197650655,0.24143727246140362,-1.4211455809887867,0.3697,0.3718,0.002,-7.13857,0.100466,CWH,-0.18487911555035336,0,FALSE,FALSE,0.19100609586953524,4.293862350828339
PKO,DEENA CREEK,950-974300-00000-00000-0000-0000-000-000-000-000-000-000,2,PKO-9,1993,968788.921209801,67.478,4.21180161882716,60,4.0943445622221,50.2033029945871,60.3593181153509,0.8367217165764517,-0.1782637409840031,0.3756,0.3778,0.002,-7.13857,0.100466,CWH,-1.7567819796155162,0,FALSE,FALSE,0.19100609586953524,4.372816842801786
PKO,DEENA CREEK,950-974300-00000-00000-0000-0000-000-000-000-000-000-000,2,PKO-9,1995,52129.602713284,67.478,4.21180161882716,50,3.912023005428146,30.9082296109984,50.2033029945871,0.618164592219968,-0.4810005265310829,0.3368,0.3387,0.002,-7.13857,0.100466,CWH,-0.5672147431639023,0,FALSE,FALSE,0.19100609586953524,3.8582967367748253
PKO,DEENA CREEK,950-974300-00000-00000-0000-0000-000-000-000-000-000-000,2,PKO-9,1997,140990.807632232,67.478,4.21180161882716,30,3.4011973816621555,50,30.9082296109984,1.6666666666666667,0.5108256237659907,0.3264,0.3282,0.002,-7.13857,0.100466,CWH,0.8907774948170872,0,FALSE,FALSE,0.19100609586953524,3.720126375821294
PKO,DEENA CREEK,950-974300-00000-00000-0000-0000-000-000-000-000-000-000,2,PKO-9,1999,175984.236913455,67.478,4.21180161882716,50,3.912023005428146,50,50,1,0,0.3112,0.313,0.002,-7.13857,0.100466,CWH,1.6302835492491898,0,FALSE,FALSE,0.19100609586953524,3.520108329488563
PKO,SACHS CREEK,950-990000-00000-00000-0000-0000-000-000-000-000-000-000,2,PKO-9,1957,90744.884306534,17.725,2.874976072418191,750,6.620073206530356,765.213206045021,2065.71334363096,1.0202842747266947,0.02008128917879637,0.0107,0.0108,0,0.178,0.05614,CWH,-0.3276691034772351,0,FALSE,FALSE,-0.7458475428054643,-0.4565662495740255
PKO,SACHS CREEK,950-990000-00000-00000-0000-0000-000-000-000-000-000-000,2,PKO-9,1959,34255.7588442242,17.725,2.874976072418191,750,6.620073206530356,1145.62724626237,765.213206045021,1.5275029950164931,0.4236343727926195,0.0123,0.0123,0,0.178,0.05614,CWH,0.7824977620566573,0,FALSE,FALSE,-0.7458475428054643,-0.4368276265806638
PKO,SACHS CREEK,950-990000-00000-00000-0000-0000-000-000-000-000-000-000,2,PKO-9,1961,0,17.725,2.874976072418191,900,6.802394763324311,15000.4527676662,1145.62724626237,16.667169741851332,2.813440900815573,0.0123,0.0123,0,0.178,0.05614,CWH,0.00583928468743269,0,FALSE,FALSE,-0.7458475428054643,-0.4368276265806638
PKO,SACHS CREEK,950-990000-00000-00000-0000-0000-000-000-000-000-000-000,2,PKO-9,1967,883992.009575254,17.725,2.874976072418191,1000,6.907755278982137,821.229326450953,1027.06819852697,0.8212293264509529,-0.1969528827714591,0.0761,0.0767,0,0.178,0.05614,CWH,-0.48089809283299456,0,FALSE,FALSE,-0.7458475428054643,0.4106172539343287
PKO,SACHS CREEK,950-990000-00000-00000-0000-0000-000-000-000-000-000-000,2,PKO-9,1969,0,17.725,2.874976072418191,750,6.620073206530356,1115.69465975266,821.229326450953,1.4875928796702134,0.3971592966027741,0.0741,0.0746,0,0.178,0.05614,CWH,0.09673401232408343,0,FALSE,FALSE,-0.7458475428054643,0.38298318174362234
PKO,SACHS CREEK,950-990000-00000-00000-0000-0000-000-000-000-000-000-000,2,PKO-9,1971,0,17.725,2.874976072418191,1100,7.003065458786462,402.227301099427,1115.69465975266,0.3656611828176609,-1.0060481043398106,0.0736,0.0741,0,0.178,0.05614,CWH,-0.34080392906905344,0,FALSE,FALSE,-0.7458475428054643,0.3764036407458351
PKO,SACHS CREEK,950-990000-00000-00000-0000-0000-000-000-000-000-000-000,2,PKO-9,1973,1012296.73340098,17.725,2.874976072418191,400,5.991464547107982,472.122034811741,402.227301099427,1.1803050870293526,0.16577295338967368,0.1702,0.1715,0,0.178,0.05614,CWH,-0.20355231452664888,0,FALSE,FALSE,-0.7458475428054643,1.6580982271147835
PKO,SACHS CREEK,950-990000-00000-00000-0000-0000-000-000-000-000-000-000,2,PKO-9,1975,221957.060109883,17.725,2.874976072418191,400,5.991464547107982,84.9824306533745,472.122034811741,0.21245607663343624,-1.5490200101782758,0.4055,0.4087,0,0.178,0.05614,CWH,1.2286162579398736,0,FALSE,FALSE,-0.7458475428054643,4.779432476465034
PKO,SACHS CREEK,950-990000-00000-00000-0000-0000-000-000-000-000-000-000,2,PKO-9,1977,617558.326371561,17.725,2.874976072418191,70,4.248495242049359,100,84.9824306533745,1.4285714285714286,0.3566749439387324,0.4467,0.4502,0,0.178,0.05614,CWH,0.9724829797884954,0,FALSE,FALSE,-0.7458475428054643,5.325534379281373
PKO,SACHS CREEK,950-990000-00000-00000-0000-0000-000-000-000-000-000-000,2,PKO-9,1983,496185.506212467,17.725,2.874976072418191,100,4.605170185988092,663.320125537367,100,6.6332012553736694,1.892087531613905,0.5365,0.5407,0,0.178,0.05614,CWH,0.10267616261581472,0,FALSE,FALSE,-0.7458475428054643,6.516431299880857
PKO,SACHS CREEK,950-990000-00000-00000-0000-0000-000-000-000-000-000-000,2,PKO-9,1985,50191.34286626,17.725,2.874976072418191,500,6.214608098422191,220.840399305943,663.320125537367,0.441680798611886,-0.8171678328847123,0.4695,0.4732,0,0.178,0.05614,CWH,-0.9758993397997916,0,FALSE,FALSE,-0.7458475428054643,5.6281932651795845
PKO,SACHS CREEK,950-990000-00000-00000-0000-0000-000-000-000-000-000-000,2,PKO-9,1987,0,17.725,2.874976072418191,220,5.393627546352362,534.675976856833,220.840399305943,2.430345349349241,0.88803336632826,0.4648,0.4684,0,0.178,0.05614,CWH,0.8862048812919091,0,FALSE,FALSE,-0.7458475428054643,5.565029671600827
PKO,SACHS CREEK,950-990000-00000-00000-0000-0000-000-000-000-000-000-000,2,PKO-9,1989,0,17.725,2.874976072418191,500,6.214608098422191,2008.99358120524,534.675976856833,4.0179871624104795,1.3907810713678475,0.4532,0.4568,0,0.178,0.05614,CWH,0.15947767939610902,0,FALSE,FALSE,-0.7458475428054643,5.412384320452164
PKO,SACHS CREEK,950-990000-00000-00000-0000-0000-000-000-000-000-000-000,2,PKO-9,1991,0,17.725,2.874976072418191,2000,7.600902459542082,50.2994317627924,2008.99358120524,0.025149715881396202,-3.6829086794625776,0.4434,0.4469,0,0.178,0.05614,CWH,-0.18487911555035336,0,FALSE,FALSE,-0.7458475428054643,5.282109408695978
PKO,SACHS CREEK,950-990000-00000-00000-0000-0000-000-000-000-000-000-000,2,PKO-9,1993,513134.914427555,17.725,2.874976072418191,50,3.912023005428146,120.487927187009,50.2994317627924,2.40975854374018,0.8795265531638512,0.4398,0.4432,0,0.178,0.05614,CWH,-1.7567819796155162,0,FALSE,FALSE,-0.7458475428054643,5.233420805312352
PKO,SACHS CREEK,950-990000-00000-00000-0000-0000-000-000-000-000-000-000,2,PKO-9,1995,212895.000403825,17.725,2.874976072418191,120,4.787491742782046,12.3632918443994,120.487927187009,0.10302743203666168,-2.2727599957591345,0.3048,0.3072,0,0.178,0.05614,CWH,-0.5672147431639023,0,FALSE,FALSE,-0.7458475428054643,3.443785653914231
PKO,SACHS CREEK,950-990000-00000-00000-0000-0000-000-000-000-000-000-000,2,PKO-9,1997,139889.290774799,17.725,2.874976072418191,12,2.4849066497880004,10,12.3632918443994,0.8333333333333334,-0.1823215567939546,0.3025,0.3049,0,0.178,0.05614,CWH,0.8907774948170872,0,FALSE,FALSE,-0.7458475428054643,3.4135197653244105
PKO,SACHS CREEK,950-990000-00000-00000-0000-0000-000-000-000-000-000-000,2,PKO-9,1999,0,17.725,2.874976072418191,10,2.302585092994046,2,10,0.2,-1.6094379124341003,0.2784,0.2806,0,0.178,0.05614,CWH,1.6302835492491898,0,FALSE,FALSE,-0.7458475428054643,3.0937540728319526
PKO,HAANS CREEK,950-996400-00000-00000-0000-0000-000-000-000-000-000-000,2,PKO-9,1959,0,30.71,3.424588334452731,400,5.991464547107982,31.8229790628436,408.113709890678,0.079557447657109,-2.5312759062411168,0.0132,0.0133,0,0.17801,0.056181,CWH,0.7824977620566573,0,FALSE,FALSE,-0.3606766811843527,-0.4236685445850894
PKO,HAANS CREEK,950-996400-00000-00000-0000-0000-000-000-000-000-000-000,2,PKO-9,1961,0,30.71,3.424588334452731,25,3.2188758248682006,3500.10564578877,31.8229790628436,140.0042258315508,4.941672606664838,0.0179,0.0179,0,0.17801,0.056181,CWH,0.00583928468743269,0,FALSE,FALSE,-0.3606766811843527,-0.3631367674054471
PKO,HAANS CREEK,950-996400-00000-00000-0000-0000-000-000-000-000-000-000,2,PKO-9,1967,0,30.71,3.424588334452731,3000,8.006367567650246,875.97794821435,3081.20459558091,0.29199264940478337,-1.2310266503019973,0.0254,0.0254,0,0.17801,0.056181,CWH,-0.48089809283299456,0,FALSE,FALSE,-0.3606766811843527,-0.264443652438639
PKO,HAANS CREEK,950-996400-00000-00000-0000-0000-000-000-000-000-000-000,2,PKO-9,1969,0,30.71,3.424588334452731,800,6.684611727667927,50.7133936251211,875.97794821435,0.06339174203140137,-2.7584216778931094,0.0212,0.0212,0,0.17801,0.056181,CWH,0.09673401232408343,0,FALSE,FALSE,-0.3606766811843527,-0.3197117968200515
PKO,HAANS CREEK,950-996400-00000-00000-0000-0000-000-000-000-000-000-000,2,PKO-9,1971,0,30.71,3.424588334452731,50,3.912023005428146,251.39206318714201,50.7133936251211,5.0278412637428405,1.6149907197727702,0.02,0.02,0,0.17801,0.056181,CWH,-0.34080392906905344,0,FALSE,FALSE,-0.3606766811843527,-0.3355026952147408
PKO,HAANS CREEK,950-996400-00000-00000-0000-0000-000-000-000-000-000-000,2,PKO-9,1973,0,30.71,3.424588334452731,250,5.521460917862246,590.152543514676,251.39206318714201,2.360610174058704,0.8589201339496186,0.021,0.021,0,0.17801,0.056181,CWH,-0.20355231452664888,0,FALSE,FALSE,-0.3606766811843527,-0.3223436132191664
PKO,HAANS CREEK,950-996400-00000-00000-0000-0000-000-000-000-000-000-000,2,PKO-9,1975,0,30.71,3.424588334452731,500,6.214608098422191,30.3508680904909,590.152543514676,0.0607017361809818,-2.8017829786736437,0.0845,0.0846,0,0.17801,0.056181,CWH,1.2286162579398736,0,FALSE,FALSE,-0.3606766811843527,0.5145740016993664
PKO,HAANS CREEK,950-996400-00000-00000-0000-0000-000-000-000-000-000-000,2,PKO-9,1977,3136609.81364634,30.71,3.424588334452731,25,3.2188758248682006,200,30.3508680904909,8,2.0794415416798357,0.202,0.2022,0,0.17801,0.056181,CWH,0.9724829797884954,0,FALSE,FALSE,-0.3606766811843527,2.062082044378918
PKO,HAANS CREEK,950-996400-00000-00000-0000-0000-000-000-000-000-000-000,2,PKO-9,1979,1838596.57648582,30.71,3.424588334452731,200,5.298317366548036,40.6875325129622,200,0.203437662564811,-1.5923956474898673,0.312,0.3123,0,0.17801,0.056181,CWH,-1.19975713829789,0,FALSE,FALSE,-0.3606766811843527,3.510896972091661