Species,River,WATERSHED_CDE,DFO,CU,BroodYear,hararea_m2_3005,area_km2,ln_area_km2,Spawners,logS,Recruits,Returns,recruitPerSpawner,ln_RS,ECA_age_proxy,ECA_age_proxy_forested_only,lake_cover_pct,var_eaubc_KFACTOR,var_eaubc_MELTONS_R,vri_bec_zone,npgo,portion_reporting_vri_cover1_missing,hatchery_enhancement,year_of_enhacement,ln_area_km2_std,ECA_age_proxy_forested_only_std
PKO,WALE CREEK,915-488300-43300-00000-0000-0000-000-000-000-000-000-000,6,PKO-12,1977,0,34.73,3.5476038667559826,750,6.620073206530356,2724.62864030632,1468.39438785695,3.632838187075093,1.2900142124935192,0.0065,0.0092,0.131,-0.12276,0.133694,CWH,0.9724829797884954,0,FALSE,FALSE,-0.27446681680719015,-0.47762078076694453
PKO,WALE CREEK,915-488300-43300-00000-0000-0000-000-000-000-000-000-000,6,PKO-12,1979,0,34.73,3.5476038667559826,1800,7.495541943884256,15520.5485191965,2724.62864030632,8.622526955109167,2.1543781919601472,0.0065,0.0092,0.131,-0.12276,0.133694,CWH,-1.19975713829789,0,FALSE,FALSE,-0.27446681680719015,-0.47762078076694453
PKO,WALE CREEK,915-488300-43300-00000-0000-0000-000-000-000-000-000-000,6,PKO-12,1981,0,34.73,3.5476038667559826,7500,8.922658299524402,2264.35578471078,15520.5485191965,0.301914104628104,-1.1976127238240528,0.0065,0.0092,0.131,-0.12276,0.133694,CWH,-0.22613906119882837,0,FALSE,FALSE,-0.27446681680719015,-0.47762078076694453
PKO,WALE CREEK,915-488300-43300-00000-0000-0000-000-000-000-000-000-000,6,PKO-12,1983,0,34.73,3.5476038667559826,1500,7.313220387090301,2422.34363177172,2264.35578471078,1.61489575451448,0.47927040630304174,0.0019,0.0027,0.131,-0.12276,0.133694,CWH,0.10267616261581472,0,FALSE,FALSE,-0.27446681680719015,-0.5631548137381782
PKO,WALE CREEK,915-488300-43300-00000-0000-0000-000-000-000-000-000-000,6,PKO-12,1985,0,34.73,3.5476038667559826,1500,7.313220387090301,453.211161333515,2422.34363177172,0.3021407742223433,-1.1968622304075942,0.0019,0.0027,0.131,-0.12276,0.133694,CWH,-0.9758993397997916,0,FALSE,FALSE,-0.27446681680719015,-0.5631548137381782
PKO,DOUGLAS CREEK,915-488300-55800-02600-0000-0000-000-000-000-000-000-000,6,PKO-12,1955,0,4.322,1.4637182580846944,75,4.31748811353631,49.8238033013005,153.094773803503,0.6643173773506733,-0.40899526576300965,0,0,0.047,0.21996,0.214914,CWH,-0.07106879047729574,0,FALSE,FALSE,-1.7348636653791625,-0.5986843351262291
PKO,DOUGLAS CREEK,915-488300-55800-02600-0000-0000-000-000-000-000-000-000,6,PKO-12,1957,0,4.322,1.4637182580846944,25,3.2188758248682006,37.2376563172019,49.8238033013005,1.4895062526880762,0.3984446910060119,0,0,0.047,0.21996,0.214914,CWH,-0.3276691034772351,0,FALSE,FALSE,-1.7348636653791625,-0.5986843351262291
PKO,DOUGLAS CREEK,915-488300-55800-02600-0000-0000-000-000-000-000-000-000,6,PKO-12,1959,0,4.322,1.4637182580846944,25,3.2188758248682006,917.601300367671,37.2376563172019,36.70405201470684,3.602887158085964,0,0,0.047,0.21996,0.214914,CWH,0.7824977620566573,0,FALSE,FALSE,-1.7348636653791625,-0.5986843351262291
PKO,DOUGLAS CREEK,915-488300-55800-02600-0000-0000-000-000-000-000-000-000,6,PKO-12,1961,0,4.322,1.4637182580846944,400,5.991464547107982,2706.91127666809,917.601300367671,6.767278191670226,1.9120989664494599,0,0,0.047,0.21996,0.214914,CWH,0.00583928468743269,0,FALSE,FALSE,-1.7348636653791625,-0.5986843351262291
PKO,DOUGLAS CREEK,915-488300-55800-02600-0000-0000-000-000-000-000-000-000,6,PKO-12,1963,0,4.322,1.4637182580846944,1500,7.313220387090301,1815.21387968102,2706.91127666809,1.2101425864540134,0.19073819271069625,0,0,0.047,0.21996,0.214914,CWH,0.5797944041154652,0,FALSE,FALSE,-1.7348636653791625,-0.5986843351262291
PKO,DOUGLAS CREEK,915-488300-55800-02600-0000-0000-000-000-000-000-000-000,6,PKO-12,1971,0,4.322,1.4637182580846944,75,4.31748811353631,9.48620258490255,104.539110915797,0.126482701132034,-2.0676497301100834,0,0,0.047,0.21996,0.214914,CWH,-0.34080392906905344,0,FALSE,FALSE,-1.7348636653791625,-0.5986843351262291
PKO,DOUGLAS CREEK,915-488300-55800-02600-0000-0000-000-000-000-000-000-000,6,PKO-12,1977,0,4.322,1.4637182580846944,25,3.2188758248682006,6811.5716007658,48.9464795952317,272.46286403063203,5.60750232602983,0,0,0.047,0.21996,0.214914,CWH,0.9724829797884954,0,FALSE,FALSE,-1.7348636653791625,-0.5986843351262291
PKO,DOUGLAS CREEK,915-488300-55800-02600-0000-0000-000-000-000-000-000-000,6,PKO-12,1979,0,4.322,1.4637182580846944,4500,8.411832675758411,12416.4388153572,6811.5716007658,2.7592086256349333,1.0149439087717824,0,0,0.047,0.21996,0.214914,CWH,-1.19975713829789,0,FALSE,FALSE,-1.7348636653791625,-0.5986843351262291
PKO,DOUGLAS CREEK,915-488300-55800-02600-0000-0000-000-000-000-000-000-000,6,PKO-12,1981,0,4.322,1.4637182580846944,6000,8.699514748210191,1509.57052314052,12416.4388153572,0.25159508719008666,-1.3799342806180073,0,0,0.047,0.21996,0.214914,CWH,-0.22613906119882837,0,FALSE,FALSE,-1.7348636653791625,-0.5986843351262291
PKO,DOUGLAS CREEK,915-488300-55800-02600-0000-0000-000-000-000-000-000-000,6,PKO-12,1983,0,4.322,1.4637182580846944,1000,6.907755278982137,1614.89575451448,1509.57052314052,1.61489575451448,0.47927040630304174,0,0,0.047,0.21996,0.214914,CWH,0.10267616261581472,0,FALSE,FALSE,-1.7348636653791625,-0.5986843351262291
PKO,DOUGLAS CREEK,915-488300-55800-02600-0000-0000-000-000-000-000-000-000,6,PKO-12,1985,0,4.322,1.4637182580846944,1000,6.907755278982137,453.211161333515,1614.89575451448,0.453211161333515,-0.7913971222994298,0,0,0.047,0.21996,0.214914,CWH,-0.9758993397997916,0,FALSE,FALSE,-1.7348636653791625,-0.5986843351262291
PKO,CHAPPLE CREEK,915-488300-56300-00000-0000-0000-000-000-000-000-000-000,6,PKO-12,1955,0,9.053,2.203096194493303,1500,7.313220387090301,797.180852820808,3061.89547607005,0.5314539018805386,-0.6321388170772194,0.0126,0.0159,0.018,0.21999,0.086752,CWH,-0.07106879047729574,0,FALSE,FALSE,-1.2167041254592794,-0.3894549313965959
PKO,CHAPPLE CREEK,915-488300-56300-00000-0000-0000-000-000-000-000-000-000,6,PKO-12,1957,0,9.053,2.203096194493303,400,5.991464547107982,595.80250107523,797.180852820808,1.489506252688075,0.39844469100601093,0.0094,0.0119,0.018,0.21999,0.086752,CWH,-0.3276691034772351,0,FALSE,FALSE,-1.2167041254592794,-0.4420912593788936
PKO,CHAPPLE CREEK,915-488300-56300-00000-0000-0000-000-000-000-000-000-000,6,PKO-12,1959,0,9.053,2.203096194493303,400,5.991464547107982,917.601300367671,595.80250107523,2.2940032509191775,0.8302984358461825,0.0094,0.0119,0.018,0.21999,0.086752,CWH,0.7824977620566573,0,FALSE,FALSE,-1.2167041254592794,-0.4420912593788936
PKO,CHAPPLE CREEK,915-488300-56300-00000-0000-0000-000-000-000-000-000-000,6,PKO-12,1961,0,9.053,2.203096194493303,400,5.991464547107982,1353.45563833405,917.601300367671,3.3836390958351252,1.2189517858895182,0.0094,0.0119,0.018,0.21999,0.086752,CWH,0.00583928468743269,0,FALSE,FALSE,-1.2167041254592794,-0.4420912593788936
PKO,CHAPPLE CREEK,915-488300-56300-00000-0000-0000-000-000-000-000-000-000,6,PKO-12,1971,0,9.053,2.203096194493303,750,6.620073206530356,284.586077547077,1045.39110915797,0.3794481033961027,-0.969037441441972,0.0031,0.004,0.018,0.21999,0.086752,CWH,-0.34080392906905344,0,FALSE,FALSE,-1.2167041254592794,-0.5460480071439315
PKO,CHAPPLE CREEK,915-488300-56300-00000-0000-0000-000-000-000-000-000-000,6,PKO-12,1973,0,9.053,2.203096194493303,150,5.0106352940962555,76.6817460195548,284.586077547077,0.5112116401303652,-0.6709716059699795,0.0031,0.004,0.018,0.21999,0.086752,CWH,-0.20355231452664888,0,FALSE,FALSE,-1.2167041254592794,-0.5460480071439315
PKO,CHAPPLE CREEK,915-488300-56300-00000-0000-0000-000-000-000-000-000-000,6,PKO-12,1975,0,9.053,2.203096194493303,50,3.912023005428146,97.8929591904634,76.6817460195548,1.957859183809268,0.671851623140693,0.0031,0.004,0.018,0.21999,0.086752,CWH,1.2286162579398736,0,FALSE,FALSE,-1.2167041254592794,-0.5460480071439315
PKO,CHAPPLE CREEK,915-488300-56300-00000-0000-0000-000-000-000-000-000-000,6,PKO-12,1977,0,9.053,2.203096194493303,50,3.912023005428146,7568.41288973977,97.8929591904634,151.3682577947954,5.01971566112771,0.0031,0.004,0.018,0.21999,0.086752,CWH,0.9724829797884954,0,FALSE,FALSE,-1.2167041254592794,-0.5460480071439315
PKO,CHAPPLE CREEK,915-488300-56300-00000-0000-0000-000-000-000-000-000-000,6,PKO-12,1979,0,9.053,2.203096194493303,5000,8.517193191416238,10347.032346131,7568.41288973977,2.0694064692262,0.7272618363200015,0.0031,0.004,0.018,0.21999,0.086752,CWH,-1.19975713829789,0,FALSE,FALSE,-1.2167041254592794,-0.5460480071439315
PKO,CHAPPLE CREEK,915-488300-56300-00000-0000-0000-000-000-000-000-000-000,6,PKO-12,1981,0,9.053,2.203096194493303,5000,8.517193191416238,1509.57052314052,10347.032346131,0.301914104628104,-1.1976127238240528,0.0031,0.004,0.018,0.21999,0.086752,CWH,-0.22613906119882837,0,FALSE,FALSE,-1.2167041254592794,-0.5460480071439315
PKO,CHAPPLE CREEK,915-488300-56300-00000-0000-0000-000-000-000-000-000-000,6,PKO-12,1983,0,9.053,2.203096194493303,1000,6.907755278982137,2422.34363177172,1509.57052314052,2.42234363177172,0.8847355144112061,0.0031,0.004,0.018,0.21999,0.086752,CWH,0.10267616261581472,0,FALSE,FALSE,-1.2167041254592794,-0.5460480071439315
PKO,CHAPPLE CREEK,915-488300-56300-00000-0000-0000-000-000-000-000-000-000,6,PKO-12,1985,0,9.053,2.203096194493303,1500,7.313220387090301,906.422322667029,2422.34363177172,0.604281548444686,-0.50371504984765,0.0031,0.004,0.018,0.21999,0.086752,CWH,-0.9758993397997916,0,FALSE,FALSE,-1.2167041254592794,-0.5460480071439315
PKO,CHAPPLE CREEK,915-488300-56300-00000-0000-0000-000-000-000-000-000-000,6,PKO-12,1987,0,9.053,2.203096194493303,500,6.214608098422191,11.9233934988047,906.422322667029,0.0238467869976094,-3.736105787804315,6e-4,8e-4,0.018,0.21999,0.086752,CWH,0.8862048812919091,0,FALSE,FALSE,-1.2167041254592794,-0.5881570695297695
PKO,CHAPPLE CREEK,915-488300-56300-00000-0000-0000-000-000-000-000-000-000,6,PKO-12,1989,0,9.053,2.203096194493303,10,2.302585092994046,992.90404950867,11.9233934988047,99.290404950867,4.598048939502963,6e-4,8e-4,0.018,0.21999,0.086752,CWH,0.15947767939610902,0,FALSE,FALSE,-1.2167041254592794,-0.5881570695297695
PKO,BARNARD CREEK,915-488300-64900-00000-0000-0000-000-000-000-000-000-000,6,PKO-12,1955,0,4.393,1.4800123649936425,3500,8.160518247477505,6975.33246218207,7144.42277749679,1.99295213205202,0.6896170229051001,0.0012,0.0014,0,0.21999,0.083085,CWH,-0.07106879047729574,0,FALSE,FALSE,-1.7234446785206206,-0.580261620332425
PKO,BARNARD CREEK,915-488300-64900-00000-0000-0000-000-000-000-000-000-000,6,PKO-12,1957,0,4.393,1.4800123649936425,3500,8.160518247477505,37.2376563172019,6975.33246218207,0.010639330376343402,-4.543197731603293,0.0012,0.0014,0,0.21999,0.083085,CWH,-0.3276691034772351,0,FALSE,FALSE,-1.7234446785206206,-0.580261620332425
PKO,BARNARD CREEK,915-488300-64900-00000-0000-0000-000-000-000-000-000-000,6,PKO-12,1959,0,4.393,1.4800123649936425,25,3.2188758248682006,458.800650183836,37.2376563172019,18.35202600735344,2.9097399775260193,0.0012,0.0014,0,0.21999,0.083085,CWH,0.7824977620566573,0,FALSE,FALSE,-1.7234446785206206,-0.580261620332425
PKO,BARNARD CREEK,915-488300-64900-00000-0000-0000-000-000-000-000-000-000,6,PKO-12,1961,0,4.393,1.4800123649936425,200,5.298317366548036,1353.45563833405,458.800650183836,6.7672781916702505,1.9120989664494636,0.0012,0.0014,0,0.21999,0.083085,CWH,0.00583928468743269,0,FALSE,FALSE,-1.7234446785206206,-0.580261620332425
PKO,BARNARD CREEK,915-488300-64900-00000-0000-0000-000-000-000-000-000-000,6,PKO-12,1963,0,4.393,1.4800123649936425,750,6.620073206530356,484.057034581606,1353.45563833405,0.6454093794421413,-0.4378704667116767,0.0012,0.0014,0,0.21999,0.083085,CWH,0.5797944041154652,0,FALSE,FALSE,-1.7234446785206206,-0.580261620332425
PKO,BARNARD CREEK,915-488300-64900-00000-0000-0000-000-000-000-000-000-000,6,PKO-12,1965,0,4.393,1.4800123649936425,200,5.298317366548036,868.302546928475,484.057034581606,4.341512734642375,1.468222843749865,0.0012,0.0014,0,0.21999,0.083085,CWH,-0.7093794641235007,0,FALSE,FALSE,-1.7234446785206206,-0.580261620332425
PKO,BARNARD CREEK,915-488300-64900-00000-0000-0000-000-000-000-000-000-000,6,PKO-12,1967,0,4.393,1.4800123649936425,400,5.991464547107982,8965.80714611589,868.302546928475,22.414517865289728,3.1097088679087377,0.0012,0.0014,0,0.21999,0.083085,CWH,-0.48089809283299456,0,FALSE,FALSE,-1.7234446785206206,-0.580261620332425
PKO,BARNARD CREEK,915-488300-64900-00000-0000-0000-000-000-000-000-000-000,6,PKO-12,1969,0,4.393,1.4800123649936425,5000,8.517193191416238,9756.98368547442,8965.80714611589,1.9513967370948841,0.6685453916061106,2e-4,3e-4,0,0.21999,0.083085,CWH,0.09673401232408343,0,FALSE,FALSE,-1.7234446785206206,-0.5947366105275568
PKO,BARNARD CREEK,915-488300-64900-00000-0000-0000-000-000-000-000-000-000,6,PKO-12,1971,0,4.393,1.4800123649936425,7000,8.85366542803745,948.620258490255,9756.98368547442,0.13551717978432215,-1.9986568586231321,2e-4,3e-4,0,0.21999,0.083085,CWH,-0.34080392906905344,0,FALSE,FALSE,-1.7234446785206206,-0.5947366105275568
PKO,BARNARD CREEK,915-488300-64900-00000-0000-0000-000-000-000-000-000-000,6,PKO-12,1973,0,4.393,1.4800123649936425,500,6.214608098422191,766.817460195548,948.620258490255,1.5336349203910962,0.42764068269813044,2e-4,3e-4,0,0.21999,0.083085,CWH,-0.20355231452664888,0,FALSE,FALSE,-1.7234446785206206,-0.5947366105275568
PKO,BARNARD CREEK,915-488300-64900-00000-0000-0000-000-000-000-000-000-000,6,PKO-12,1975,0,4.393,1.4800123649936425,500,6.214608098422191,587.357755142781,766.817460195548,1.174715510285562,0.1610259993747033,2e-4,3e-4,0,0.21999,0.083085,CWH,1.2286162579398736,0,FALSE,FALSE,-1.7234446785206206,-0.5947366105275568
PKO,BARNARD CREEK,915-488300-64900-00000-0000-0000-000-000-000-000-000-000,6,PKO-12,1977,0,4.393,1.4800123649936425,300,5.703782474656201,15136.8257794795,587.357755142781,50.45608593159834,3.9211033724595974,2e-4,3e-4,0,0.21999,0.083085,CWH,0.9724829797884954,0,FALSE,FALSE,-1.7234446785206206,-0.5947366105275568
PKO,BARNARD CREEK,915-488300-64900-00000-0000-0000-000-000-000-000-000-000,6,PKO-12,1979,0,4.393,1.4800123649936425,10000,9.210340371976184,7242.92264229169,15136.8257794795,0.724292264229169,-0.3225602881786775,0,0,0,0.21999,0.083085,CWH,-1.19975713829789,0,FALSE,FALSE,-1.7234446785206206,-0.5986843351262291
PKO,BARNARD CREEK,915-488300-64900-00000-0000-0000-000-000-000-000-000-000,6,PKO-12,1981,0,4.393,1.4800123649936425,3500,8.160518247477505,4528.71156942155,7242.92264229169,1.2939175912633,0.2576745087827872,0,0,0,0.21999,0.083085,CWH,-0.22613906119882837,0,FALSE,FALSE,-1.7234446785206206,-0.5986843351262291
PKO,BARNARD CREEK,915-488300-64900-00000-0000-0000-000-000-000-000-000-000,6,PKO-12,1983,0,4.393,1.4800123649936425,3000,8.006367567650246,32297.9150902895,4528.71156942155,10.765971696763167,2.37639039118892,0,0,0,0.21999,0.083085,CWH,0.10267616261581472,0,FALSE,FALSE,-1.7234446785206206,-0.5986843351262291
PKO,BARNARD CREEK,915-488300-64900-00000-0000-0000-000-000-000-000-000-000,6,PKO-12,1985,0,4.393,1.4800123649936425,20000,9.903487552536127,12689.9125173384,32297.9150902895,0.63449562586692,-0.4549248856782185,0,0,0,0.21999,0.083085,CWH,-0.9758993397997916,0,FALSE,FALSE,-1.7234446785206206,-0.5986843351262291
PKO,BARNARD CREEK,915-488300-64900-00000-0000-0000-000-000-000-000-000-000,6,PKO-12,1987,0,4.393,1.4800123649936425,7000,8.85366542803745,4769.3573995219,12689.9125173384,0.6813367713602715,-0.3836985703115871,0,0,0,0.21999,0.083085,CWH,0.8862048812919091,0,FALSE,FALSE,-1.7234446785206206,-0.5986843351262291
PKO,BARNARD CREEK,915-488300-64900-00000-0000-0000-000-000-000-000-000-000,6,PKO-12,1989,0,4.393,1.4800123649936425,4000,8.294049640102028,17021.2122772915,4769.3573995219,4.255303069322875,1.4481659861217144,0,0,0,0.21999,0.083085,CWH,0.15947767939610902,0,FALSE,FALSE,-1.7234446785206206,-0.5986843351262291
PKO,BARNARD CREEK,915-488300-64900-00000-0000-0000-000-000-000-000-000-000,6,PKO-12,1991,0,4.393,1.4800123649936425,12000,9.392661928770137,5004.80621550487,17021.2122772915,0.4170671846254058,-0.8745079559512297,0,0,0,0.21999,0.083085,CWH,-0.18487911555035336,0,FALSE,FALSE,-1.7234446785206206,-0.5986843351262291
PKO,BARNARD CREEK,915-488300-64900-00000-0000-0000-000-000-000-000-000-000,6,PKO-12,1993,0,4.393,1.4800123649936425,4000,8.294049640102028,10929.8102825985,5004.80621550487,2.732452570649625,1.0051995834246383,0,0,0,0.21999,0.083085,CWH,-1.7567819796155162,0,FALSE,FALSE,-1.7234446785206206,-0.5986843351262291
PKO,BARNARD CREEK,915-488300-64900-00000-0000-0000-000-000-000-000-000-000,6,PKO-12,1995,0,4.393,1.4800123649936425,9200,9.126958763037132,2859.54232688776,10929.8102825985,0.3108198181399739,-1.1685418975924105,0,0,0,0.21999,0.083085,CWH,-0.5672147431639023,0,FALSE,FALSE,-1.7234446785206206,-0.5986843351262291
PKO,BARNARD CREEK,915-488300-64900-00000-0000-0000-000-000-000-000-000-000,6,PKO-12,1997,0,4.393,1.4800123649936425,2500,7.824046010856292,4637.27336523918,2859.54232688776,1.854909346095672,0.6178358248359324,0,0,0,0.21999,0.083085,CWH,0.8907774948170872,0,FALSE,FALSE,-1.7234446785206206,-0.5986843351262291
PKO,BARNARD CREEK,915-488300-64900-00000-0000-0000-000-000-000-000-000-000,6,PKO-12,1999,0,4.393,1.4800123649936425,4100,8.318742252692399,10228.1446475467,4637.27336523918,2.4946694262309026,0.9141562259286785,0,0,0,0.21999,0.083085,CWH,1.6302835492491898,0,FALSE,FALSE,-1.7234446785206206,-0.5986843351262291
PKO,BARNARD CREEK,915-488300-64900-00000-0000-0000-000-000-000-000-000-000,6,PKO-12,2001,0,4.393,1.4800123649936425,8000,8.987196820661973,8742.26076067205,10228.1446475467,1.0927825950840062,0.08872728280785266,0,0,0,0.21999,0.083085,CWH,1.9190067210816288,0,FALSE,FALSE,-1.7234446785206206,-0.5986843351262291
PKO,BARNARD CREEK,915-488300-64900-00000-0000-0000-000-000-000-000-000-000,6,PKO-12,2003,0,4.393,1.4800123649936425,7000,8.85366542803745,16611.3565322468,8742.26076067205,2.373050933178114,0.864176440846596,0,0,0,0.21999,0.083085,CWH,0.41101277747559006,0,FALSE,FALSE,-1.7234446785206206,-0.5986843351262291
PKO,BARNARD CREEK,915-488300-64900-00000-0000-0000-000-000-000-000-000-000,6,PKO-12,2005,0,4.393,1.4800123649936425,13300,9.495519314209846,11650.9999360011,16611.3565322468,0.8760150327820376,-0.1323720274829003,0,0,0,0.21999,0.083085,CWH,-0.8145696192436794,0,FALSE,FALSE,-1.7234446785206206,-0.5986843351262291
PKO,BARNARD CREEK,915-488300-64900-00000-0000-0000-000-000-000-000-000-000,6,PKO-12,2007,0,4.393,1.4800123649936425,10000,9.210340371976184,26185.449972326,11650.9999360011,2.6185449972326,0.9626188189443865,0,0,0,0.21999,0.083085,CWH,0.8768892458318005,0,FALSE,FALSE,-1.7234446785206206,-0.5986843351262291
PKO,BARNARD CREEK,915-488300-64900-00000-0000-0000-000-000-000-000-000-000,6,PKO-12,2009,0,4.393,1.4800123649936425,22500,10.021270588192511,7978.38502312244,26185.449972326,0.35459488991655286,-1.0367792962846911,0,0,0,0.21999,0.083085,CWH,1.604652193542091,0,FALSE,FALSE,-1.7234446785206206,-0.5986843351262291
PKO,BARNARD CREEK,915-488300-64900-00000-0000-0000-000-000-000-000-000-000,6,PKO-12,2011,0,4.393,1.4800123649936425,7000,8.85366542803745,25992.2033085771,7978.38502312244,3.7131719012253,1.3118864712483114,0,0,0,0.21999,0.083085,CWH,0.7408851700104637,0,FALSE,FALSE,-1.7234446785206206,-0.5986843351262291
PKO,BARNARD CREEK,915-488300-64900-00000-0000-0000-000-000-000-000-000-000,6,PKO-12,2013,0,4.393,1.4800123649936425,21500,9.975808214115753,1733.46156128647,25992.2033085771,0.08062611912960325,-2.5179326232852866,0,0,0,0.21999,0.083085,CWH,-0.5528640906240193,0,FALSE,FALSE,-1.7234446785206206,-0.5986843351262291
PKO,WEST ARM CREEK,915-488300-70700-00000-0000-0000-000-000-000-000-000-000,6,PKO-13,1955,0,23.343,3.150297153302903,75,4.31748811353631,354.364168730726,143.515992521883,4.724855583076347,1.552836996050318,0.0023,0.0041,0.022,0.23331,0.204686,CWH,-0.07106879047729574,0,FALSE,FALSE,-0.5529012327026597,-0.544732098944374