Species,River,WATERSHED_CDE,DFO,CU,BroodYear,hararea_m2_3005,area_km2,ln_area_km2,Spawners,logS,Recruits,Returns,recruitPerSpawner,ln_RS,ECA_age_proxy,ECA_age_proxy_forested_only,lake_cover_pct,var_eaubc_KFACTOR,var_eaubc_MELTONS_R,vri_bec_zone,npgo,portion_reporting_vri_cover1_missing,hatchery_enhancement,year_of_enhacement,ln_area_km2_std,ECA_age_proxy_forested_only_std
PKO,KITKIATA CREEK,910-713300-00000-00000-0000-0000-000-000-000-000-000-000,6,PKO-13,1987,4678536.33064128,75.432,4.3232315881633765,15000,9.615805480084347,38920.1655663843,30862.9578687231,2.59467770442562,0.953462310224642,0.0621,0.1059,0.045,0.04755,0.146318,CWH,0.8862048812919091,4.5508335077035e-4,FALSE,FALSE,0.2690967431574363,0.7948624482051015
PKO,KITKIATA CREEK,910-713300-00000-00000-0000-0000-000-000-000-000-000-000,6,PKO-13,1989,104127.21975238,75.432,4.3232315881633765,35000,10.46310334047155,19765.4308764972,38920.1655663843,0.5647265964713486,-0.5714135650038197,0.0874,0.149,0.045,0.04755,0.146318,CWH,0.15947767939610902,4.5508335077035e-4,FALSE,FALSE,0.2690967431574363,1.3620188822143589
PKO,KITKIATA CREEK,910-713300-00000-00000-0000-0000-000-000-000-000-000-000,6,PKO-13,1991,0.679019636241719,75.432,4.3232315881633765,15000,9.615805480084347,5350.32437700518,19765.4308764972,0.35668829180034534,-1.0308930108163712,0.0874,0.149,0.045,0.04755,0.146318,CWH,-0.18487911555035336,4.5508335077035e-4,FALSE,FALSE,0.2690967431574363,1.3620188822143589
PKO,KITKIATA CREEK,910-713300-00000-00000-0000-0000-000-000-000-000-000-000,6,PKO-13,1993,0,75.432,4.3232315881633765,5000,8.517193191416238,142110.619369967,5350.32437700518,28.4221238739934,3.34716785154429,0.0873,0.1488,0.045,0.04755,0.146318,CWH,-1.7567819796155162,4.5508335077035e-4,FALSE,FALSE,0.2690967431574363,1.359387065815244
PKO,KITKIATA CREEK,910-713300-00000-00000-0000-0000-000-000-000-000-000-000,6,PKO-13,1995,0,75.432,4.3232315881633765,125000,11.736069016284437,8832.03447393178,142110.619369967,0.07065627579145424,-2.649928344476744,0.0873,0.1488,0.045,0.04755,0.146318,CWH,-0.5672147431639023,4.5508335077035e-4,FALSE,FALSE,0.2690967431574363,1.359387065815244
PKO,KITKIATA CREEK,910-713300-00000-00000-0000-0000-000-000-000-000-000-000,6,PKO-13,1997,437666.184453549,75.432,4.3232315881633765,7500,8.922658299524402,65604.8488351333,8832.03447393178,8.747313178017775,2.1687465878459022,0.0931,0.1587,0.045,0.04755,0.146318,CWH,0.8907774948170872,4.5508335077035e-4,FALSE,FALSE,0.2690967431574363,1.489661977571431
PKO,KITKIATA CREEK,910-713300-00000-00000-0000-0000-000-000-000-000-000-000,6,PKO-13,1999,0,75.432,4.3232315881633765,60000,11.002099841204238,95529.186706933,65604.8488351333,1.5921531117822167,0.4650872585401995,0.0716,0.1221,0.045,0.04755,0.146318,CWH,1.6302835492491898,4.5508335077035e-4,FALSE,FALSE,0.2690967431574363,1.0080395765334071
PKO,KITKIATA CREEK,910-713300-00000-00000-0000-0000-000-000-000-000-000-000,6,PKO-13,2001,16431.1266482663,75.432,4.3232315881633765,70000,11.156250521031495,23607.5767289918,95529.186706933,0.3372510961284543,-1.0869275337039888,0.0715,0.1219,0.045,0.04755,0.146318,CWH,1.9190067210816288,4.5508335077035e-4,FALSE,FALSE,0.2690967431574363,1.0054077601342921
PKO,KITKIATA CREEK,910-713300-00000-00000-0000-0000-000-000-000-000-000-000,6,PKO-13,2003,0,75.432,4.3232315881633765,16000,9.680344001221918,32827.871112066,23607.5767289918,2.051741944504125,0.7186891613613925,0.0715,0.1219,0.045,0.04755,0.146318,CWH,0.41101277747559006,4.5508335077035e-4,FALSE,FALSE,0.2690967431574363,1.0054077601342921
PKO,KITKIATA CREEK,910-713300-00000-00000-0000-0000-000-000-000-000-000-000,6,PKO-13,2005,0,75.432,4.3232315881633765,22000,9.998797732340453,77203.2779829454,32827.871112066,3.5092399083156995,1.255399463689957,0.0715,0.1219,0.045,0.04755,0.146318,CWH,-0.8145696192436794,4.5508335077035e-4,FALSE,FALSE,0.2690967431574363,1.0054077601342921
PKO,KITKIATA CREEK,910-713300-00000-00000-0000-0000-000-000-000-000-000-000,6,PKO-13,2007,0,75.432,4.3232315881633765,62000,11.03488966402723,36116.9844708911,77203.2779829454,0.5825320075950177,-0.5403711463909293,0.0715,0.1219,0.045,0.04755,0.146318,CWH,0.8768892458318005,4.5508335077035e-4,FALSE,FALSE,0.2690967431574363,1.0054077601342921
PKO,KITKIATA CREEK,910-713300-00000-00000-0000-0000-000-000-000-000-000-000,6,PKO-13,2009,0,75.432,4.3232315881633765,28000,10.239959789157341,10686.7768311552,36116.9844708911,0.38167060111268575,-0.9631973431228502,0.0271,0.0462,0.045,0.04755,0.146318,CWH,1.604652193542091,4.5508335077035e-4,FALSE,FALSE,0.2690967431574363,0.009265253069308881
PKO,KITKIATA CREEK,910-713300-00000-00000-0000-0000-000-000-000-000-000-000,6,PKO-13,2011,0,75.432,4.3232315881633765,9000,9.104979856318357,470774.537701954,10686.7768311552,52.30828196688378,3.9571547135413847,0.0264,0.045,0.045,0.04755,0.146318,CWH,0.7408851700104637,4.5508335077035e-4,FALSE,FALSE,0.2690967431574363,-0.0065256453253804145
PKO,KITKIATA CREEK,910-713300-00000-00000-0000-0000-000-000-000-000-000-000,6,PKO-13,2013,0,75.432,4.3232315881633765,360000,12.793859310432293,1681.60695975417,470774.537701954,0.004671130443761584,-5.36635417154904,0.0263,0.0449,0.045,0.04755,0.146318,CWH,-0.5528640906240193,4.5508335077035e-4,FALSE,FALSE,0.2690967431574363,-0.007841553524937803
PKO,QUAAL RIVER,910-713900-00000-00000-0000-0000-000-000-000-000-000-000,6,PKO-13,1955,0,191.546,5.255127988652452,7500,8.922658299524402,6201.3729527877,14351.5992521883,0.82684972703836,-0.19013230900830577,3e-4,6e-4,0.041,0.22365,0.149943,CWH,-0.07106879047729574,1.39210346830868e-5,FALSE,FALSE,0.9221741293665394,-0.5907888859288845
PKO,QUAAL RIVER,910-713900-00000-00000-0000-0000-000-000-000-000-000-000,6,PKO-13,1957,0,191.546,5.255127988652452,3500,8.160518247477505,103148.488225912,6201.3729527877,29.47099663597486,3.3834066148399593,3e-4,6e-4,0.041,0.22365,0.149943,CWH,-0.3276691034772351,1.39210346830868e-5,FALSE,FALSE,0.9221741293665394,-0.5907888859288845
PKO,QUAAL RIVER,910-713900-00000-00000-0000-0000-000-000-000-000-000-000,6,PKO-13,1959,0,191.546,5.255127988652452,75000,11.225243392518447,393866.089432806,103148.488225912,5.25154785910408,1.6585228634551576,3e-4,6e-4,0.041,0.22365,0.149943,CWH,0.7824977620566573,1.39210346830868e-5,FALSE,FALSE,0.9221741293665394,-0.5907888859288845
PKO,QUAAL RIVER,910-713900-00000-00000-0000-0000-000-000-000-000-000-000,6,PKO-13,1961,0,191.546,5.255127988652452,200000,12.206072645530174,981138.146976696,393866.089432806,4.90569073488348,1.590395905708968,3e-4,6e-4,0.041,0.22365,0.149943,CWH,0.00583928468743269,1.39210346830868e-5,FALSE,FALSE,0.9221741293665394,-0.5907888859288845
PKO,QUAAL RIVER,910-713900-00000-00000-0000-0000-000-000-000-000-000-000,6,PKO-13,1963,0,191.546,5.255127988652452,500000,13.122363377404328,228004.464072042,981138.146976696,0.456008928144084,-0.7852428903960801,3e-4,6e-4,0.041,0.22365,0.149943,CWH,0.5797944041154652,1.39210346830868e-5,FALSE,FALSE,0.9221741293665394,-0.5907888859288845
PKO,QUAAL RIVER,910-713900-00000-00000-0000-0000-000-000-000-000-000-000,6,PKO-13,1965,0,191.546,5.255127988652452,75000,11.225243392518447,21824.3419966344,228004.464072042,0.290991226621792,-1.2344621613311437,3e-4,6e-4,0.041,0.22365,0.149943,CWH,-0.7093794641235007,1.39210346830868e-5,FALSE,FALSE,0.9221741293665394,-0.5907888859288845
PKO,QUAAL RIVER,910-713900-00000-00000-0000-0000-000-000-000-000-000-000,6,PKO-13,1967,0,191.546,5.255127988652452,15000,9.615805480084347,35069.5686020824,21824.3419966344,2.3379712401388266,0.8492835619215349,3e-4,6e-4,0.041,0.22365,0.149943,CWH,-0.48089809283299456,1.39210346830868e-5,FALSE,FALSE,0.9221741293665394,-0.5907888859288845
PKO,QUAAL RIVER,910-713900-00000-00000-0000-0000-000-000-000-000-000-000,6,PKO-13,1969,0,191.546,5.255127988652452,30000,10.308952660644293,161682.329002027,35069.5686020824,5.389410966734233,1.684436096339522,3e-4,6e-4,0.041,0.22365,0.149943,CWH,0.09673401232408343,1.39210346830868e-5,FALSE,FALSE,0.9221741293665394,-0.5907888859288845
PKO,QUAAL RIVER,910-713900-00000-00000-0000-0000-000-000-000-000-000-000,6,PKO-13,1971,0,191.546,5.255127988652452,125000,11.736069016284437,103656.047618261,161682.329002027,0.829248380946088,-0.18723555358849053,3e-4,6e-4,0.041,0.22365,0.149943,CWH,-0.34080392906905344,1.39210346830868e-5,FALSE,FALSE,0.9221741293665394,-0.5907888859288845
PKO,QUAAL RIVER,910-713900-00000-00000-0000-0000-000-000-000-000-000-000,6,PKO-13,1973,0,191.546,5.255127988652452,60000,11.002099841204238,143543.198963999,103656.047618261,2.3923866493999832,0.8722914657513531,3e-4,6e-4,0.041,0.22365,0.149943,CWH,-0.20355231452664888,1.39210346830868e-5,FALSE,FALSE,0.9221741293665394,-0.5907888859288845
PKO,QUAAL RIVER,910-713900-00000-00000-0000-0000-000-000-000-000-000-000,6,PKO-13,1975,0,191.546,5.255127988652452,100000,11.512925464970229,77471.898179366,143543.198963999,0.77471898179366006,-0.25525491952277934,3e-4,6e-4,0.041,0.22365,0.149943,CWH,1.2286162579398736,1.39210346830868e-5,FALSE,FALSE,0.9221741293665394,-0.5907888859288845
PKO,QUAAL RIVER,910-713900-00000-00000-0000-0000-000-000-000-000-000-000,6,PKO-13,1977,0,191.546,5.255127988652452,45000,10.714417768752456,336474.056198179,77471.898179366,7.477201248848423,2.011858557376892,3e-4,6e-4,0.041,0.22365,0.149943,CWH,0.9724829797884954,1.39210346830868e-5,FALSE,FALSE,0.9221741293665394,-0.5907888859288845
PKO,QUAAL RIVER,910-713900-00000-00000-0000-0000-000-000-000-000-000-000,6,PKO-13,1979,0,191.546,5.255127988652452,200000,12.206072645530174,233766.824103363,336474.056198179,1.1688341205168151,0.15600677380444553,3e-4,6e-4,0.041,0.22365,0.149943,CWH,-1.19975713829789,1.39210346830868e-5,FALSE,FALSE,0.9221741293665394,-0.5907888859288845
PKO,QUAAL RIVER,910-713900-00000-00000-0000-0000-000-000-000-000-000-000,6,PKO-13,1981,0,191.546,5.255127988652452,80000,11.289781913656018,103126.22067607,233766.824103363,1.289077758450875,0.253927046769769,3e-4,6e-4,0.041,0.22365,0.149943,CWH,-0.22613906119882837,1.39210346830868e-5,FALSE,FALSE,0.9221741293665394,-0.5907888859288845
PKO,QUAAL RIVER,910-713900-00000-00000-0000-0000-000-000-000-000-000-000,6,PKO-13,1983,0,191.546,5.255127988652452,60000,11.002099841204238,272966.271075576,103126.22067607,4.549437851259601,1.515003676156317,3e-4,6e-4,0.041,0.22365,0.149943,CWH,0.10267616261581472,1.39210346830868e-5,FALSE,FALSE,0.9221741293665394,-0.5907888859288845
PKO,QUAAL RIVER,910-713900-00000-00000-0000-0000-000-000-000-000-000-000,6,PKO-13,1985,0,191.546,5.255127988652452,150000,11.918390573078392,102876.526229077,272966.271075576,0.6858435081938467,-0.3771057994464753,3e-4,6e-4,0.041,0.22365,0.149943,CWH,-0.9758993397997916,1.39210346830868e-5,FALSE,FALSE,0.9221741293665394,-0.5907888859288845
PKO,QUAAL RIVER,910-713900-00000-00000-0000-0000-000-000-000-000-000-000,6,PKO-13,1987,0,191.546,5.255127988652452,50000,10.819778284410283,139000.591308515,102876.526229077,2.7800118261702997,1.0224551817115908,3e-4,6e-4,0.041,0.22365,0.149943,CWH,0.8862048812919091,1.39210346830868e-5,FALSE,FALSE,0.9221741293665394,-0.5907888859288845
PKO,QUAAL RIVER,910-713900-00000-00000-0000-0000-000-000-000-000-000-000,6,PKO-13,1989,1497814.9134992,191.546,5.255127988652452,125000,11.736069016284437,164711.92397081,139000.591308515,1.31769539176648,0.2758842953833839,0.0087,0.0199,0.041,0.22365,0.149943,CWH,0.15947767939610902,1.39210346830868e-5,FALSE,FALSE,0.9221741293665394,-0.33681860341429826
PKO,QUAAL RIVER,910-713900-00000-00000-0000-0000-000-000-000-000-000-000,6,PKO-13,1991,0,191.546,5.255127988652452,125000,11.736069016284437,64203.8925240622,164711.92397081,0.5136311401924976,-0.6662498972284615,0.0087,0.0199,0.041,0.22365,0.149943,CWH,-0.18487911555035336,1.39210346830868e-5,FALSE,FALSE,0.9221741293665394,-0.33681860341429826
PKO,QUAAL RIVER,910-713900-00000-00000-0000-0000-000-000-000-000-000-000,6,PKO-13,1993,0,191.546,5.255127988652452,60000,11.002099841204238,218281.911352269,64203.8925240622,3.63803185587115,1.2914428364817687,0.0087,0.0199,0.041,0.22365,0.149943,CWH,-1.7567819796155162,1.39210346830868e-5,FALSE,FALSE,0.9221741293665394,-0.33681860341429826
PKO,QUAAL RIVER,910-713900-00000-00000-0000-0000-000-000-000-000-000-000,6,PKO-13,1995,0,191.546,5.255127988652452,192000,12.165250651009918,94208.367721939,218281.911352269,0.49066858188509893,-0.7119863650706078,0.0087,0.0199,0.041,0.22365,0.149943,CWH,-0.5672147431639023,1.39210346830868e-5,FALSE,FALSE,0.9221741293665394,-0.33681860341429826
PKO,QUAAL RIVER,910-713900-00000-00000-0000-0000-000-000-000-000-000-000,6,PKO-13,1997,0,191.546,5.255127988652452,80000,11.289781913656018,229616.970922967,94208.367721939,2.870212136537088,1.0543859422096553,0.0087,0.0199,0.041,0.22365,0.149943,CWH,0.8907774948170872,1.39210346830868e-5,FALSE,FALSE,0.9221741293665394,-0.33681860341429826
PKO,QUAAL RIVER,910-713900-00000-00000-0000-0000-000-000-000-000-000-000,6,PKO-13,1999,0,191.546,5.255127988652452,210000,12.254862809699606,341175.666810475,229616.970922967,1.6246460324308334,0.48528996585771894,0.0085,0.0195,0.041,0.22365,0.149943,CWH,1.6302835492491898,1.39210346830868e-5,FALSE,FALSE,0.9221741293665394,-0.34208223621252803
PKO,QUAAL RIVER,910-713900-00000-00000-0000-0000-000-000-000-000-000-000,6,PKO-13,2001,0,191.546,5.255127988652452,250000,12.429216196844383,295094.709112397,341175.666810475,1.180378836449588,0.16583543479137758,0.0066,0.0151,0.041,0.22365,0.149943,CWH,1.9190067210816288,1.39210346830868e-5,FALSE,FALSE,0.9221741293665394,-0.39998219699305543
PKO,QUAAL RIVER,910-713900-00000-00000-0000-0000-000-000-000-000-000-000,6,PKO-13,2003,0,191.546,5.255127988652452,200000,12.206072645530174,223826.393945904,295094.709112397,1.1191319697295201,0.11255335779107459,0.0066,0.0151,0.041,0.22365,0.149943,CWH,0.41101277747559006,1.39210346830868e-5,FALSE,FALSE,0.9221741293665394,-0.39998219699305543
PKO,QUAAL RIVER,910-713900-00000-00000-0000-0000-000-000-000-000-000-000,6,PKO-13,2005,0,191.546,5.255127988652452,150000,11.918390573078392,205460.336567516,223826.393945904,1.3697355771167734,0.3146177118075065,0.0066,0.0151,0.041,0.22365,0.149943,CWH,-0.8145696192436794,1.39210346830868e-5,FALSE,FALSE,0.9221741293665394,-0.39998219699305543
PKO,QUAAL RIVER,910-713900-00000-00000-0000-0000-000-000-000-000-000-000,6,PKO-13,2007,0,191.546,5.255127988652452,165000,12.013700752882718,203802.983800028,205460.336567516,1.2351695987880487,0.21120828760534313,0.0066,0.0151,0.041,0.22365,0.149943,CWH,0.8768892458318005,1.39210346830868e-5,FALSE,FALSE,0.9221741293665394,-0.39998219699305543
PKO,QUAAL RIVER,910-713900-00000-00000-0000-0000-000-000-000-000-000-000,6,PKO-13,2009,0,191.546,5.255127988652452,158000,11.970350312009105,57471.110958657,203802.983800028,0.3637412085990949,-1.011312629588244,0.0063,0.0143,0.041,0.22365,0.149943,CWH,1.604652193542091,1.39210346830868e-5,FALSE,FALSE,0.9221741293665394,-0.410509462589515
PKO,QUAAL RIVER,910-713900-00000-00000-0000-0000-000-000-000-000-000-000,6,PKO-13,2011,0,191.546,5.255127988652452,48400,10.787255092704724,637507.186471396,57471.110958657,13.171636084119752,2.578065736142764,0.0024,0.0054,0.041,0.22365,0.149943,CWH,0.7408851700104637,1.39210346830868e-5,FALSE,FALSE,0.9221741293665394,-0.5276252923501272
PKO,QUAAL RIVER,910-713900-00000-00000-0000-0000-000-000-000-000-000-000,6,PKO-13,2013,0,191.546,5.255127988652452,487500,13.09704556942004,4899.08160941714,637507.186471396,0.010049398173163363,-4.600242529537454,0.0024,0.0054,0.041,0.22365,0.149943,CWH,-0.5528640906240193,1.39210346830868e-5,FALSE,FALSE,0.9221741293665394,-0.5276252923501272
PKO,KISKOSH CREEK,910-721600-00000-00000-0000-0000-000-000-000-000-000-000,6,PKO-12,1955,0,22.239,3.1018475043426923,1500,7.313220387090301,2989.42819807803,3061.89547607005,1.99295213205202,0.6896170229051001,0,0,0.084,0.22438,0.216876,CWH,-0.07106879047729574,0,FALSE,FALSE,-0.5868549748665709,-0.5986843351262291
PKO,KISKOSH CREEK,910-721600-00000-00000-0000-0000-000-000-000-000-000-000,6,PKO-12,1957,0,22.239,3.1018475043426923,1500,7.313220387090301,52132.7188440826,2989.42819807803,34.75514589605507,3.54832764438726,0,0,0.084,0.22438,0.216876,CWH,-0.3276691034772351,0,FALSE,FALSE,-0.5868549748665709,-0.5986843351262291
PKO,KISKOSH CREEK,910-721600-00000-00000-0000-0000-000-000-000-000-000-000,6,PKO-12,1959,0,22.239,3.1018475043426923,35000,10.46310334047155,80290.1137821713,52132.7188440826,2.29400325091918,0.8302984358461836,0,0,0.084,0.22438,0.216876,CWH,0.7824977620566573,0,FALSE,FALSE,-0.5868549748665709,-0.5986843351262291
PKO,KISKOSH CREEK,910-721600-00000-00000-0000-0000-000-000-000-000-000-000,6,PKO-12,1961,0,22.239,3.1018475043426923,35000,10.46310334047155,135345.563833405,80290.1137821713,3.8670161095258573,1.3524831785140408,0,0,0.084,0.22438,0.216876,CWH,0.00583928468743269,0,FALSE,FALSE,-0.5868549748665709,-0.5986843351262291
PKO,KISKOSH CREEK,910-721600-00000-00000-0000-0000-000-000-000-000-000-000,6,PKO-12,1963,0,22.239,3.1018475043426923,75000,11.225243392518447,36304.2775936204,135345.563833405,0.4840570345816053,-0.725552539163459,0,0,0.084,0.22438,0.216876,CWH,0.5797944041154652,0,FALSE,FALSE,-0.5868549748665709,-0.5986843351262291
PKO,KISKOSH CREEK,910-721600-00000-00000-0000-0000-000-000-000-000-000-000,6,PKO-12,1965,0,22.239,3.1018475043426923,15000,9.615805480084347,7597.64728562415,36304.2775936204,0.50650981904161,-0.6802115694169234,0,0,0.084,0.22438,0.216876,CWH,-0.7093794641235007,0,FALSE,FALSE,-0.5868549748665709,-0.5986843351262291
PKO,KISKOSH CREEK,910-721600-00000-00000-0000-0000-000-000-000-000-000-000,6,PKO-12,1967,0,22.239,3.1018475043426923,3500,8.160518247477505,7172.64571689271,7597.64728562415,2.0493273476836316,0.7175116162250046,0,0,0.084,0.22438,0.216876,CWH,-0.48089809283299456,0,FALSE,FALSE,-0.5868549748665709,-0.5986843351262291
PKO,KISKOSH CREEK,910-721600-00000-00000-0000-0000-000-000-000-000-000-000,6,PKO-12,1969,0,22.239,3.1018475043426923,4000,8.294049640102028,557.541924884253,7172.64571689271,0.13938548122106326,-1.9705119380091474,0,0,0.084,0.22438,0.216876,CWH,0.09673401232408343,0,FALSE,FALSE,-0.5868549748665709,-0.5986843351262291
PKO,KISKOSH CREEK,910-721600-00000-00000-0000-0000-000-000-000-000-000-000,6,PKO-12,1971,0,22.239,3.1018475043426923,400,5.991464547107982,28458.6077547077,557.541924884253,71.14651938676926,4.264741403968493,0,0,0.084,0.22438,0.216876,CWH,-0.34080392906905344,0,FALSE,FALSE,-0.5868549748665709,-0.5986843351262291
PKO,KISKOSH CREEK,910-721600-00000-00000-0000-0000-000-000-000-000-000-000,6,PKO-12,1973,0,22.239,3.1018475043426923,15000,9.615805480084347,76681.7460195548,28458.6077547077,5.112116401303654,1.6316134870240664,0,0,0.084,0.22438,0.216876,CWH,-0.20355231452664888,0,FALSE,FALSE,-0.5868549748665709,-0.5986843351262291
PKO,KISKOSH CREEK,910-721600-00000-00000-0000-0000-000-000-000-000-000-000,6,PKO-12,1975,0,22.239,3.1018475043426923,50000,10.819778284410283,39157.1836761854,76681.7460195548,0.783143673523708,-0.24443910873346114,0,0,0.084,0.22438,0.216876,CWH,1.2286162579398736,0,FALSE,FALSE,-0.5868549748665709,-0.5986843351262291
PKO,KISKOSH CREEK,910-721600-00000-00000-0000-0000-000-000-000-000-000-000,6,PKO-12,1977,0,22.239,3.1018475043426923,20000,9.903487552536127,30273.6515589591,39157.1836761854,1.513682577947955,0.41454547513961887,0,0,0.084,0.22438,0.216876,CWH,0.9724829797884954,0,FALSE,FALSE,-0.5868549748665709,-0.5986843351262291
PKO,KISKOSH CREEK,910-721600-00000-00000-0000-0000-000-000-000-000-000-000,6,PKO-12,1979,0,22.239,3.1018475043426923,20000,9.903487552536127,16555.2517538096,30273.6515589591,0.82776258769048,-0.1890288955541536,0,0,0.084,0.22438,0.216876,CWH,-1.19975713829789,0,FALSE,FALSE,-0.5868549748665709,-0.5986843351262291
PKO,KISKOSH CREEK,910-721600-00000-00000-0000-0000-000-000-000-000-000-000,6,PKO-12,1981,0,22.239,3.1018475043426923,8000,8.987196820661973,13586.1347082647,16555.2517538096,1.6982668385330877,0.5296082242664327,0,0,0.084,0.22438,0.216876,CWH,-0.22613906119882837,0,FALSE,FALSE,-0.5868549748665709,-0.5986843351262291