Species,River,WATERSHED_CDE,DFO,CU,BroodYear,hararea_m2_3005,area_km2,ln_area_km2,Spawners,logS,Recruits,Returns,recruitPerSpawner,ln_RS,ECA_age_proxy,ECA_age_proxy_forested_only,lake_cover_pct,var_eaubc_KFACTOR,var_eaubc_MELTONS_R,vri_bec_zone,npgo,portion_reporting_vri_cover1_missing,hatchery_enhancement,year_of_enhacement,ln_area_km2_std,ECA_age_proxy_forested_only_std
PKO,RIORDAN CREEK,915-566500-58300-00000-0000-0000-000-000-000-000-000-000,6,PKO-13,1987,0,15.135,2.7170099424736818,1000,6.907755278982137,556.002365234062,2057.53052458154,0.556002365234062,-0.5869827307225058,0.0212,0.0353,0.002,0.2202,0.079193,CWH,0.8862048812919091,0,FALSE,FALSE,-0.8565509506087196,-0.13416874068245227
PKO,RIORDAN CREEK,915-566500-58300-00000-0000-0000-000-000-000-000-000-000,6,PKO-13,1989,407099.741502097,15.135,2.7170099424736818,500,6.214608098422191,658.84769588324,556.002365234062,1.31769539176648,0.2758842953833839,0.1906,0.3174,0.002,0.2202,0.079193,CWH,0.15947767939610902,0,FALSE,FALSE,-0.8565509506087196,3.5780082902690906
PKO,RIORDAN CREEK,915-566500-58300-00000-0000-0000-000-000-000-000-000-000,6,PKO-13,1991,0,15.135,2.7170099424736818,500,6.214608098422191,214.012975080207,658.84769588324,0.428025950160414,-0.8485714540224175,0.1906,0.3174,0.002,0.2202,0.079193,CWH,-0.18487911555035336,0,FALSE,FALSE,-0.8565509506087196,3.5780082902690906
PKO,RIORDAN CREEK,915-566500-58300-00000-0000-0000-000-000-000-000-000-000,6,PKO-13,1993,0,15.135,2.7170099424736818,200,5.298317366548036,1023.19645946376,214.012975080207,5.1159822973188,1.632369423452361,0.1781,0.2965,0.002,0.2202,0.079193,CWH,-1.7567819796155162,0,FALSE,FALSE,-0.8565509506087196,3.302983476561585
PKO,RIORDAN CREEK,915-566500-58300-00000-0000-0000-000-000-000-000-000-000,6,PKO-13,1995,0,15.135,2.7170099424736818,900,6.802394763324311,88.3203447393178,1023.19645946376,0.09813371637701979,-2.321424277504708,0.1781,0.2965,0.002,0.2202,0.079193,CWH,-0.5672147431639023,0,FALSE,FALSE,-0.8565509506087196,3.302983476561585
PKO,RIORDAN CREEK,915-566500-58300-00000-0000-0000-000-000-000-000-000-000,6,PKO-13,1997,0,15.135,2.7170099424736818,75,4.31748811353631,1530.77980615311,88.3203447393178,20.4103974153748,3.0160444482331052,0.1781,0.2965,0.002,0.2202,0.079193,CWH,0.8907774948170872,0,FALSE,FALSE,-0.8565509506087196,3.302983476561585
PKO,RIORDAN CREEK,915-566500-58300-00000-0000-0000-000-000-000-000-000-000,6,PKO-13,1999,0,15.135,2.7170099424736818,1400,7.24422751560335,2729.4053344838,1530.77980615311,1.9495752389169998,0.6676115226516735,0.1425,0.2372,0.002,0.2202,0.079193,CWH,1.6302835492491898,0,FALSE,FALSE,-0.8565509506087196,2.5226499142240226
PKO,RIORDAN CREEK,915-566500-58300-00000-0000-0000-000-000-000-000-000-000,6,PKO-13,2001,0,15.135,2.7170099424736818,2000,7.600902459542082,3098.49444568017,2729.4053344838,1.549247222840085,0.4377691502750199,0.1358,0.226,0.002,0.2202,0.079193,CWH,1.9190067210816288,0,FALSE,FALSE,-0.8565509506087196,2.375268195873589
PKO,RIORDAN CREEK,915-566500-58300-00000-0000-0000-000-000-000-000-000-000,6,PKO-13,2003,0,15.135,2.7170099424736818,2100,7.649692623711514,1790.61115156723,3098.49444568017,0.8526719769367762,-0.15938035769256836,0.1327,0.2209,0.002,0.2202,0.079193,CWH,0.41101277747559006,0,FALSE,FALSE,-0.8565509506087196,2.3081568776961596
PKO,RIORDAN CREEK,915-566500-58300-00000-0000-0000-000-000-000-000-000-000,6,PKO-13,2005,0,15.135,2.7170099424736818,1200,7.090076835776092,3735.64248304575,1790.61115156723,3.113035402538125,1.1355982638773379,0.1327,0.2209,0.002,0.2202,0.079193,CWH,-0.8145696192436794,0,FALSE,FALSE,-0.8565509506087196,2.3081568776961596
PKO,RIORDAN CREEK,915-566500-58300-00000-0000-0000-000-000-000-000-000-000,6,PKO-13,2007,0,15.135,2.7170099424736818,3000,8.006367567650246,6062.49382189958,3735.64248304575,2.0208312739665266,0.7035089485268621,0.1327,0.2209,0.002,0.2202,0.079193,CWH,0.8768892458318005,0,FALSE,FALSE,-0.8565509506087196,2.3081568776961596
PKO,RIORDAN CREEK,915-566500-58300-00000-0000-0000-000-000-000-000-000-000,6,PKO-13,2009,0,15.135,2.7170099424736818,4700,8.45531778769815,1424.90357748736,6062.49382189958,0.30317097393348086,-1.193458362205924,0.0614,0.1022,0.002,0.2202,0.079193,CWH,1.604652193542091,0,FALSE,FALSE,-0.8565509506087196,0.7461738448214762
PKO,RIORDAN CREEK,915-566500-58300-00000-0000-0000-000-000-000-000-000-000,6,PKO-13,2011,0,15.135,2.7170099424736818,1200,7.090076835776092,11468.5908212393,1424.90357748736,9.557159017699417,2.2572905090175883,0.048,0.0798,0.002,0.2202,0.079193,CWH,0.7408851700104637,0,FALSE,FALSE,-0.8565509506087196,0.45141040812060923
PKO,RIORDAN CREEK,915-566500-58300-00000-0000-0000-000-000-000-000-000-000,6,PKO-13,2013,0,15.135,2.7170099424736818,8770,9.079092085366229,403.585670341,11468.5908212393,0.04601889057480046,-3.078703302123124,0.0444,0.074,0.002,0.2202,0.079193,CWH,-0.5528640906240193,0,FALSE,FALSE,-0.8565509506087196,0.37508773254627764
PKO,EVELYN CREEK,915-567300-72300-00000-0000-0000-000-000-000-000-000-000,6,PKO-13,1955,0,19.233,2.95662755367323,3500,8.160518247477505,1328.86563274022,6697.41298435454,0.3796758950686343,-0.968437297908559,0.0136,0.0148,0.031,0.21296,0.324991,CWH,-0.07106879047729574,0,FALSE,FALSE,-0.6886258002060116,-0.40392992159172775
PKO,EVELYN CREEK,915-567300-72300-00000-0000-0000-000-000-000-000-000-000,6,PKO-13,1957,0,19.233,2.95662755367323,750,6.620073206530356,1031.48488225912,1328.86563274022,1.3753131763454933,0.31868146979901685,0.0103,0.0112,0.031,0.21296,0.324991,CWH,-0.3276691034772351,0,FALSE,FALSE,-0.6886258002060116,-0.45130261677579564
PKO,EVELYN CREEK,915-567300-72300-00000-0000-0000-000-000-000-000-000-000,6,PKO-13,1959,0,19.233,2.95662755367323,750,6.620073206530356,14769.9783537302,1031.48488225912,19.693304471640264,2.980278703437475,0.0099,0.0107,0.031,0.21296,0.324991,CWH,0.7824977620566573,0,FALSE,FALSE,-0.6886258002060116,-0.4578821577735829
PKO,EVELYN CREEK,915-567300-72300-00000-0000-0000-000-000-000-000-000-000,6,PKO-13,1961,0,19.233,2.95662755367323,7500,8.922658299524402,6867.96702883687,14769.9783537302,0.9157289371782493,-0.08803487821208408,0.0099,0.0107,0.031,0.21296,0.324991,CWH,0.00583928468743269,0,FALSE,FALSE,-0.6886258002060116,-0.4578821577735829
PKO,EVELYN CREEK,915-567300-72300-00000-0000-0000-000-000-000-000-000-000,6,PKO-13,1963,0,19.233,2.95662755367323,3500,8.160518247477505,10640.2083233619,6867.96702883687,3.0400595209605425,1.1118770944897953,0.0099,0.0107,0.031,0.21296,0.324991,CWH,0.5797944041154652,0,FALSE,FALSE,-0.6886258002060116,-0.4578821577735829
PKO,EVELYN CREEK,915-567300-72300-00000-0000-0000-000-000-000-000-000-000,6,PKO-13,1965,0,19.233,2.95662755367323,3500,8.160518247477505,581.982453243584,10640.2083233619,0.1662807009267383,-1.7940779492665662,0.0099,0.0107,0.031,0.21296,0.324991,CWH,-0.7093794641235007,0,FALSE,FALSE,-0.6886258002060116,-0.4578821577735829
PKO,EVELYN CREEK,915-567300-72300-00000-0000-0000-000-000-000-000-000-000,6,PKO-13,1967,0,19.233,2.95662755367323,400,5.991464547107982,116.898562006941,581.982453243584,0.2922464050173525,-1.230157979758304,0.0075,0.0081,0.031,0.21296,0.324991,CWH,-0.48089809283299456,0,FALSE,FALSE,-0.6886258002060116,-0.49209577096207635
PKO,EVELYN CREEK,915-567300-72300-00000-0000-0000-000-000-000-000-000-000,6,PKO-13,1969,0,19.233,2.95662755367323,100,4.605170185988092,15521.5035841946,116.898562006941,155.215035841946,5.044811483481423,0.0075,0.0081,0.031,0.21296,0.324991,CWH,0.09673401232408343,0,FALSE,FALSE,-0.6886258002060116,-0.49209577096207635
PKO,EVELYN CREEK,915-567300-72300-00000-0000-0000-000-000-000-000-000-000,6,PKO-13,1971,0,19.233,2.95662755367323,12000,9.392661928770137,6046.60277773192,15521.5035841946,0.5038835648109933,-0.6854100598009178,0.0075,0.0081,0.031,0.21296,0.324991,CWH,-0.34080392906905344,0,FALSE,FALSE,-0.6886258002060116,-0.49209577096207635
PKO,EVELYN CREEK,915-567300-72300-00000-0000-0000-000-000-000-000-000-000,6,PKO-13,1973,0,19.233,2.95662755367323,3500,8.160518247477505,25837.7758135199,6046.60277773192,7.382221661005686,1.9990746313861623,0.0075,0.0081,0.031,0.21296,0.324991,CWH,-0.20355231452664888,0,FALSE,FALSE,-0.6886258002060116,-0.49209577096207635
PKO,EVELYN CREEK,915-567300-72300-00000-0000-0000-000-000-000-000-000-000,6,PKO-13,1975,0,19.233,2.95662755367323,18000,9.798127036878302,5164.79321195773,25837.7758135199,0.28693295621987386,-1.2485066925330635,0.0075,0.0081,0.031,0.21296,0.324991,CWH,1.2286162579398736,0,FALSE,FALSE,-0.6886258002060116,-0.49209577096207635
PKO,EVELYN CREEK,915-567300-72300-00000-0000-0000-000-000-000-000-000-000,6,PKO-13,1977,0,19.233,2.95662755367323,3000,8.006367567650246,4205.92570247724,5164.79321195773,1.4019752341590799,0.337882123805221,0.006,0.0065,0.031,0.21296,0.324991,CWH,0.9724829797884954,0,FALSE,FALSE,-0.6886258002060116,-0.5131503021549955
PKO,EVELYN CREEK,915-567300-72300-00000-0000-0000-000-000-000-000-000-000,6,PKO-13,1979,0,19.233,2.95662755367323,2500,7.824046010856292,14610.4265064602,4205.92570247724,5.8441706025840805,1.7654446862385467,0.0058,0.0063,0.031,0.21296,0.324991,CWH,-1.19975713829789,0,FALSE,FALSE,-0.6886258002060116,-0.5157821185541103
PKO,EVELYN CREEK,915-567300-72300-00000-0000-0000-000-000-000-000-000-000,6,PKO-13,1981,0,19.233,2.95662755367323,5000,8.517193191416238,7734.46655070524,14610.4265064602,1.5468933101410478,0.4362486035637222,0.0058,0.0063,0.031,0.21296,0.324991,CWH,-0.22613906119882837,0,FALSE,FALSE,-0.6886258002060116,-0.5157821185541103
PKO,EVELYN CREEK,915-567300-72300-00000-0000-0000-000-000-000-000-000-000,6,PKO-13,1983,0,19.233,2.95662755367323,4500,8.411832675758411,45494.3785125959,7734.46655070524,10.109861891687977,2.3135113723740863,0.0058,0.0063,0.031,0.21296,0.324991,CWH,0.10267616261581472,0,FALSE,FALSE,-0.6886258002060116,-0.5157821185541103
PKO,EVELYN CREEK,915-567300-72300-00000-0000-0000-000-000-000-000-000-000,6,PKO-13,1985,0,19.233,2.95662755367323,25000,10.126631103850338,15431.4789343616,45494.3785125959,0.617259157374464,-0.4824663151042983,0.0058,0.0063,0.031,0.21296,0.324991,CWH,-0.9758993397997916,0,FALSE,FALSE,-0.6886258002060116,-0.5157821185541103
PKO,EVELYN CREEK,915-567300-72300-00000-0000-0000-000-000-000-000-000-000,6,PKO-13,1987,0,19.233,2.95662755367323,7500,8.922658299524402,22240.0946093625,15431.4789343616,2.965345947915,1.0869937028491665,0.0016,0.0017,0.031,0.21296,0.324991,CWH,0.8862048812919091,0,FALSE,FALSE,-0.6886258002060116,-0.5763138957337526
PKO,EVELYN CREEK,915-567300-72300-00000-0000-0000-000-000-000-000-000-000,6,PKO-13,1989,0,19.233,2.95662755367323,20000,9.903487552536127,7906.17235059889,22240.0946093625,0.3953086175299445,-0.9280885089425508,0.0016,0.0017,0.031,0.21296,0.324991,CWH,0.15947767939610902,0,FALSE,FALSE,-0.6886258002060116,-0.5763138957337526
PKO,EVELYN CREEK,915-567300-72300-00000-0000-0000-000-000-000-000-000-000,6,PKO-13,1991,0,19.233,2.95662755367323,6000,8.699514748210191,4280.25950160414,7906.17235059889,0.7133765836006899,-0.337745830256427,0.0016,0.0017,0.031,0.21296,0.324991,CWH,-0.18487911555035336,0,FALSE,FALSE,-0.6886258002060116,-0.5763138957337526
PKO,EVELYN CREEK,915-567300-72300-00000-0000-0000-000-000-000-000-000-000,6,PKO-13,1993,0,19.233,2.95662755367323,4000,8.294049640102028,238.745840541544,4280.25950160414,0.059686460135386,-2.8186500827084724,0.0016,0.0017,0.031,0.21296,0.324991,CWH,-1.7567819796155162,0,FALSE,FALSE,-0.6886258002060116,-0.5763138957337526
PKO,EVELYN CREEK,915-567300-72300-00000-0000-0000-000-000-000-000-000-000,6,PKO-13,1995,0,19.233,2.95662755367323,210,5.3471075307174685,1295.36505617666,238.745840541544,6.168405029412666,1.8194403003522843,0.0016,0.0017,0.031,0.21296,0.324991,CWH,-0.5672147431639023,0,FALSE,FALSE,-0.6886258002060116,-0.5763138957337526
PKO,EVELYN CREEK,915-567300-72300-00000-0000-0000-000-000-000-000-000-000,6,PKO-13,1997,0,19.233,2.95662755367323,1100,7.003065458786462,12027.5556197744,1295.36505617666,10.934141472522182,2.3918901391601084,0.001,0.0011,0.031,0.21296,0.324991,CWH,0.8907774948170872,0,FALSE,FALSE,-0.6886258002060116,-0.5842093449310973
PKO,EVELYN CREEK,915-567300-72300-00000-0000-0000-000-000-000-000-000-000,6,PKO-13,1999,0,19.233,2.95662755367323,11000,9.305650551780507,30023.4586793218,12027.5556197744,2.7294053344838,1.0040837592728864,0.001,0.0011,0.031,0.21296,0.324991,CWH,1.6302835492491898,0,FALSE,FALSE,-0.6886258002060116,-0.5842093449310973
PKO,EVELYN CREEK,915-567300-72300-00000-0000-0000-000-000-000-000-000-000,6,PKO-13,2001,0,19.233,2.95662755367323,22000,9.998797732340453,26558.5238201157,30023.4586793218,1.2072056281870773,0.18830829064343513,0.001,0.0011,0.031,0.21296,0.324991,CWH,1.9190067210816288,0,FALSE,FALSE,-0.6886258002060116,-0.5842093449310973
PKO,EVELYN CREEK,915-567300-72300-00000-0000-0000-000-000-000-000-000-000,6,PKO-13,2003,10963.544257163,19.233,2.95662755367323,18000,9.798127036878302,35812.2230313447,26558.5238201157,1.9895679461858167,0.687917502694638,0.0016,0.0017,0.031,0.21296,0.324991,CWH,0.41101277747559006,0,FALSE,FALSE,-0.6886258002060116,-0.5763138957337526
PKO,EVELYN CREEK,915-567300-72300-00000-0000-0000-000-000-000-000-000-000,6,PKO-13,2005,11830.8193643683,19.233,2.95662755367323,24000,10.085809109330082,15565.1770126906,35812.2230313447,0.6485490421954416,-0.43301765403650905,0.0022,0.0024,0.031,0.21296,0.324991,CWH,-0.8145696192436794,0,FALSE,FALSE,-0.6886258002060116,-0.5671025383368505
PKO,EVELYN CREEK,915-567300-72300-00000-0000-0000-000-000-000-000-000-000,6,PKO-13,2007,699886.60199551,19.233,2.95662755367323,12500,9.433483923290392,20251.3091497497,15565.1770126906,1.620104731979976,0.48249079652496774,0.0378,0.0409,0.031,0.21296,0.324991,CWH,0.8768892458318005,0,FALSE,FALSE,-0.6886258002060116,-0.060477881507235515
PKO,EVELYN CREEK,915-567300-72300-00000-0000-0000-000-000-000-000-000-000,6,PKO-13,2009,0,19.233,2.95662755367323,15700,9.6614159913364,6352.69511629783,20251.3091497497,0.40463026218457515,-0.9047815617302103,0.0378,0.0409,0.031,0.21296,0.324991,CWH,1.604652193542091,0,FALSE,FALSE,-0.6886258002060116,-0.060477881507235515
PKO,EVELYN CREEK,915-567300-72300-00000-0000-0000-000-000-000-000-000-000,6,PKO-13,2011,0,19.233,2.95662755367323,5350,8.584851839890053,43154.3326226791,6352.69511629783,8.06623039676245,2.087686259986013,0.0378,0.0409,0.031,0.21296,0.324991,CWH,0.7408851700104637,0,FALSE,FALSE,-0.6886258002060116,-0.060477881507235515
PKO,EVELYN CREEK,915-567300-72300-00000-0000-0000-000-000-000-000-000-000,6,PKO-13,2013,0,19.233,2.95662755367323,33000,10.404262840448617,2130.03548235528,43154.3326226791,0.06454652976834181,-2.7403689235011353,0.0378,0.0409,0.031,0.21296,0.324991,CWH,-0.5528640906240193,0,FALSE,FALSE,-0.6886258002060116,-0.060477881507235515
PKO,VERNEY PASSAGE CREEK,915-567300-75400-00000-0000-0000-000-000-000-000-000-000,6,PKO-13,1983,0,39.195,3.6685491876406857,2800,7.937374696163295,2365.70768265499,4812.55696488326,0.8448956009482107,-0.16854220843150622,0,0,0.003,0.21629,0.226447,CWH,0.10267616261581472,0.011030252564639,FALSE,FALSE,-0.1897077663417633,-0.5986843351262291
PKO,VERNEY PASSAGE CREEK,915-567300-75400-00000-0000-0000-000-000-000-000-000-000,6,PKO-13,1985,0,39.195,3.6685491876406857,1300,7.170119543449628,8230.12209832617,2365.70768265499,6.330863152558592,1.8454365858740351,0,0,0.003,0.21629,0.226447,CWH,-0.9758993397997916,0.011030252564639,FALSE,FALSE,-0.1897077663417633,-0.5986843351262291
PKO,VERNEY PASSAGE CREEK,915-567300-75400-00000-0000-0000-000-000-000-000-000-000,6,PKO-13,1987,0,39.195,3.6685491876406857,4000,8.294049640102028,4448.01892187249,8230.12209832617,1.1120047304681224,0.10616444983743803,0,0,0.003,0.21629,0.226447,CWH,0.8862048812919091,0.011030252564639,FALSE,FALSE,-0.1897077663417633,-0.5986843351262291
PKO,VERNEY PASSAGE CREEK,915-567300-75400-00000-0000-0000-000-000-000-000-000-000,6,PKO-13,1989,0,39.195,3.6685491876406857,4000,8.294049640102028,7906.17235059889,4448.01892187249,1.9765430876497225,0.6813494034915495,0,0,0.003,0.21629,0.226447,CWH,0.15947767939610902,0.011030252564639,FALSE,FALSE,-0.1897077663417633,-0.5986843351262291
PKO,VERNEY PASSAGE CREEK,915-567300-75400-00000-0000-0000-000-000-000-000-000-000,6,PKO-13,1991,0,39.195,3.6685491876406857,6000,8.699514748210191,3424.20760128331,7906.17235059889,0.5707012668805517,-0.5608893815706373,0,0,0.003,0.21629,0.226447,CWH,-0.18487911555035336,0.011030252564639,FALSE,FALSE,-0.1897077663417633,-0.5986843351262291
PKO,VERNEY PASSAGE CREEK,915-567300-75400-00000-0000-0000-000-000-000-000-000-000,6,PKO-13,1993,0,39.195,3.6685491876406857,3200,8.070906088787819,68.213097297584,3424.20760128331,0.021316592905495,-3.8482694998896303,0,0,0.003,0.21629,0.226447,CWH,-1.7567819796155162,0.011030252564639,FALSE,FALSE,-0.1897077663417633,-0.5986843351262291
PKO,VERNEY PASSAGE CREEK,915-567300-75400-00000-0000-0000-000-000-000-000-000-000,6,PKO-13,1999,1195.16068842181,39.195,3.6685491876406857,500,6.214608098422191,1228.23240051771,546.707073626111,2.4564648010354198,0.8987232436150601,0.0058,0.011,0.003,0.21629,0.226447,CWH,1.6302835492491898,0.011030252564639,FALSE,FALSE,-0.1897077663417633,-0.4539344331749105
PKO,VERNEY PASSAGE CREEK,915-567300-75400-00000-0000-0000-000-000-000-000-000-000,6,PKO-13,2001,18216.8386299686,39.195,3.6685491876406857,900,6.802394763324311,3688.68386390496,1228.23240051771,4.0985376265610665,1.410630233637568,0.015,0.0284,0.003,0.21629,0.226447,CWH,1.9190067210816288,0.011030252564639,FALSE,FALSE,-0.1897077663417633,-0.22496640645191568
PKO,VERNEY PASSAGE CREEK,915-567300-75400-00000-0000-0000-000-000-000-000-000-000,6,PKO-13,2003,425842.350954119,39.195,3.6685491876406857,2500,7.824046010856292,4476.52787891809,3688.68386390496,1.790611151567236,0.5825569870368122,0.0263,0.05,0.003,0.21629,0.226447,CWH,0.41101277747559006,0.011030252564639,FALSE,FALSE,-0.1897077663417633,0.05926976465249173
PKO,VERNEY PASSAGE CREEK,915-567300-75400-00000-0000-0000-000-000-000-000-000-000,6,PKO-13,2005,0,39.195,3.6685491876406857,3000,8.006367567650246,3735.64248304575,4476.52787891809,1.24521416101525,0.21930753200318284,0.0343,0.0652,0.003,0.21629,0.226447,CWH,-0.8145696192436794,0.011030252564639,FALSE,FALSE,-0.1897077663417633,0.25928781098522274
PKO,VERNEY PASSAGE CREEK,915-567300-75400-00000-0000-0000-000-000-000-000-000-000,6,PKO-13,2007,0,39.195,3.6685491876406857,3000,8.006367567650246,10706.1061110142,3735.64248304575,3.5687020370047335,1.272201954613406,0.0343,0.0652,0.003,0.21629,0.226447,CWH,0.8768892458318005,0.011030252564639,FALSE,FALSE,-0.1897077663417633,0.25928781098522274
PKO,VERNEY PASSAGE CREEK,915-567300-75400-00000-0000-0000-000-000-000-000-000-000,6,PKO-13,2009,0,39.195,3.6685491876406857,8300,9.02401079378469,118.741964790614,10706.1061110142,0.014306260818146265,-4.247058018080458,0.0329,0.0625,0.003,0.21629,0.226447,CWH,1.604652193542091,0.011030252564639,FALSE,FALSE,-0.1897077663417633,0.2237582895971719
PKO,VERNEY PASSAGE CREEK,915-567300-75400-00000-0000-0000-000-000-000-000-000-000,6,PKO-13,2011,0,39.195,3.6685491876406857,100,4.605170185988092,21707.9370162568,118.741964790614,217.079370162568,5.380263047783993,0.0307,0.0584,0.003,0.21629,0.226447,CWH,0.7408851700104637,0.011030252564639,FALSE,FALSE,-0.1897077663417633,0.1698060534153168
PKO,VERNEY PASSAGE CREEK,915-567300-75400-00000-0000-0000-000-000-000-000-000-000,6,PKO-13,2013,0,39.195,3.6685491876406857,16600,9.717157974344635,633.40528817407,21707.9370162568,0.03815694507072711,-3.2660474914052435,0.0305,0.0579,0.003,0.21629,0.226447,CWH,-0.5528640906240193,0.011030252564639,FALSE,FALSE,-0.1897077663417633,0.16322651241752958
PKO,FISHTRAP BAY CREEK,915-567300-78100-00000-0000-0000-000-000-000-000-000-000,6,PKO-13,1983,0,4.579,1.5214806336749584,1000,6.907755278982137,3639.55028100768,1718.77034460116,3.63955028100768,1.291860124842107,0,0,0,0.21897,0.299279,CWH,0.10267616261581472,0,FALSE,FALSE,-1.694383520534821,-0.5986843351262291