Species,River,WATERSHED_CDE,DFO,CU,BroodYear,hararea_m2_3005,area_km2,ln_area_km2,Spawners,logS,Recruits,Returns,recruitPerSpawner,ln_RS,ECA_age_proxy,ECA_age_proxy_forested_only,lake_cover_pct,var_eaubc_KFACTOR,var_eaubc_MELTONS_R,vri_bec_zone,npgo,portion_reporting_vri_cover1_missing,hatchery_enhancement,year_of_enhacement,ln_area_km2_std,ECA_age_proxy_forested_only_std
PKO,TSABLE RIVER,920-527600-00000-00000-0000-0000-000-000-000-000-000-000,14,PKO-3,1993,0,106.52,4.668332760945732,1000,6.907755278982137,5555.555555555556,2272.727272727273,5.555555555555555,1.7147984280919266,0.2304,0.2558,0.017,-2.96184,0.221601,CWH,-1.7567819796155162,0,FALSE,FALSE,0.5109452702899742,2.767408839341707
PKO,TSABLE RIVER,920-527600-00000-00000-0000-0000-000-000-000-000-000-000,14,PKO-3,1995,0,106.52,4.668332760945732,2000,7.600902459542082,795.4545454545455,5555.555555555556,0.39772727272727276,-0.9219887529887927,0.2303,0.2557,0.017,-2.96184,0.221601,CWH,-0.5672147431639023,0,FALSE,FALSE,0.5109452702899742,2.766092931142149
PKO,TSABLE RIVER,920-527600-00000-00000-0000-0000-000-000-000-000-000-000,14,PKO-3,1997,0,106.52,4.668332760945732,350,5.857933154483459,1340.2061855670104,795.4545454545455,3.829160530191458,1.3426455964508772,0.2303,0.2557,0.017,-2.96184,0.221601,CWH,0.8907774948170872,0,FALSE,FALSE,0.5109452702899742,2.766092931142149
PKO,TSULQUATE RIVER,920-900500-00000-00000-0000-0000-000-000-000-000-000-000,12,PKO-5,1959,0,58.576,4.070325056377881,750,6.620073206530356,1875,1785.7142857142856,2.5,0.9162907318741551,0.0077,0.0084,0.046,0.24605,0.099729,CWH,0.7824977620566573,0,FALSE,FALSE,0.09185865462420631,-0.4881480463634041
PKO,TSULQUATE RIVER,920-900500-00000-00000-0000-0000-000-000-000-000-000-000,12,PKO-5,1961,0,58.576,4.070325056377881,750,6.620073206530356,408.16326530612247,1875,0.54421768707483,-0.6084059521048546,0.0077,0.0084,0.046,0.24605,0.099729,CWH,0.00583928468743269,0,FALSE,FALSE,0.09185865462420631,-0.4881480463634041
PKO,TSULQUATE RIVER,920-900500-00000-00000-0000-0000-000-000-000-000-000-000,12,PKO-5,1963,0,58.576,4.070325056377881,200,5.298317366548036,120.96774193548389,408.16326530612247,0.6048387096774195,-0.5027934520687262,0.0077,0.0084,0.046,0.24605,0.099729,CWH,0.5797944041154652,0,FALSE,FALSE,0.09185865462420631,-0.4881480463634041
PKO,TSULQUATE RIVER,920-900500-00000-00000-0000-0000-000-000-000-000-000-000,12,PKO-5,1969,0,58.576,4.070325056377881,200,5.298317366548036,655.7377049180328,298.5074626865672,3.278688524590164,1.1874435023747254,0.0288,0.0313,0.046,0.24605,0.099729,CWH,0.09673401232408343,0,FALSE,FALSE,0.09185865462420631,-0.18680506866474988
PKO,TSULQUATE RIVER,920-900500-00000-00000-0000-0000-000-000-000-000-000-000,12,PKO-5,1971,0,58.576,4.070325056377881,400,5.991464547107982,12727.272727272726,655.7377049180328,31.818181818181817,3.4600378816850887,0.0298,0.0324,0.046,0.24605,0.099729,CWH,-0.34080392906905344,0,FALSE,FALSE,0.09185865462420631,-0.17233007846961806
PKO,TSULQUATE RIVER,920-900500-00000-00000-0000-0000-000-000-000-000-000-000,12,PKO-5,1973,191.423972092103,58.576,4.070325056377881,7000,8.85366542803745,3285.714285714286,12727.272727272726,0.46938775510204084,-0.7563260821814769,0.0298,0.0324,0.046,0.24605,0.099729,CWH,-0.20355231452664888,0,FALSE,FALSE,0.09185865462420631,-0.17233007846961806
PKO,TSULQUATE RIVER,920-900500-00000-00000-0000-0000-000-000-000-000-000-000,12,PKO-5,1975,60.1127799961105,58.576,4.070325056377881,2300,7.7406644019172415,73.17073170731707,3285.714285714286,0.03181336161187699,-3.447868900971302,0.0296,0.0322,0.046,0.24605,0.099729,CWH,1.2286162579398736,0,FALSE,FALSE,0.09185865462420631,-0.17496189486873293
PKO,TSULQUATE RIVER,920-900500-00000-00000-0000-0000-000-000-000-000-000-000,12,PKO-5,1977,1427378.56573725,58.576,4.070325056377881,30,3.4011973816621555,37.20930232558139,73.17073170731707,1.2403100775193796,0.2153614108721546,0.0502,0.0546,0.046,0.24605,0.099729,CWH,0.9724829797884954,0,FALSE,FALSE,0.09185865462420631,0.11980154183213404
PKO,TSULQUATE RIVER,920-900500-00000-00000-0000-0000-000-000-000-000-000-000,12,PKO-5,1979,0,58.576,4.070325056377881,16,2.772588722239781,689.655172413793,37.20930232558139,43.103448275862064,3.763603000309873,0.0459,0.0499,0.046,0.24605,0.099729,CWH,-1.19975713829789,0,FALSE,FALSE,0.09185865462420631,0.05795385645293425
PKO,TSULQUATE RIVER,920-900500-00000-00000-0000-0000-000-000-000-000-000-000,12,PKO-5,1981,0,58.576,4.070325056377881,400,5.991464547107982,21.052631578947366,689.655172413793,0.05263157894736842,-2.9444389791664407,0.0456,0.0496,0.046,0.24605,0.099729,CWH,-0.22613906119882837,0,FALSE,FALSE,0.09185865462420631,0.0540061318542619
PKO,TSULQUATE RIVER,920-900500-00000-00000-0000-0000-000-000-000-000-000-000,12,PKO-5,1983,0,58.576,4.070325056377881,12,2.4849066497880004,200,21.052631578947366,16.666666666666668,2.8134107167600364,0.0456,0.0496,0.046,0.24605,0.099729,CWH,0.10267616261581472,0,FALSE,FALSE,0.09185865462420631,0.0540061318542619
PKO,TSULQUATE RIVER,920-900500-00000-00000-0000-0000-000-000-000-000-000-000,12,PKO-5,1985,14173.6255704343,58.576,4.070325056377881,100,4.605170185988092,107.14285714285714,200,1.0714285714285714,0.06899287148695142,0.0454,0.0494,0.046,0.24605,0.099729,CWH,-0.9758993397997916,0,FALSE,FALSE,0.09185865462420631,0.051374315455147035
PKO,TSULQUATE RIVER,920-900500-00000-00000-0000-0000-000-000-000-000-000-000,12,PKO-5,1987,2550727.2856431,58.576,4.070325056377881,60,4.0943445622221,810.8108108108108,107.14285714285714,13.513513513513514,2.6036901857779675,0.085,0.0925,0.046,0.24605,0.099729,CWH,0.8862048812919091,0,FALSE,FALSE,0.09185865462420631,0.6185307494644043
PKO,TSULQUATE RIVER,920-900500-00000-00000-0000-0000-000-000-000-000-000-000,12,PKO-5,1995,0,58.576,4.070325056377881,100,4.605170185988092,173.61111111111111,161.29032258064515,1.7361111111111112,0.5516476182862459,0.0968,0.1054,0.046,0.24605,0.099729,CWH,-0.5672147431639023,0,FALSE,FALSE,0.09185865462420631,0.7882829072073143
PKO,VINER SOUND CREEK,905-557500-39800-00000-0000-0000-000-000-000-000-000-000,12,PKO-7,1959,0,25.306,3.231041521767072,400,5.991464547107982,3750,952.3809523809524,9.375,2.2380465718564744,0.085,0.0873,0.004,0.13545,0.384209,CWH,0.7824977620566573,0,FALSE,FALSE,-0.496315199019077,0.5501035230874175
PKO,VINER SOUND CREEK,905-557500-39800-00000-0000-0000-000-000-000-000-000-000,12,PKO-7,1961,0,25.306,3.231041521767072,1500,7.313220387090301,408.16326530612247,3750,0.272108843537415,-1.3015531326648,0.1081,0.1109,0.004,0.13545,0.384209,CWH,0.00583928468743269,0,FALSE,FALSE,-0.496315199019077,0.8606578581829737
PKO,VINER SOUND CREEK,905-557500-39800-00000-0000-0000-000-000-000-000-000-000,12,PKO-7,1971,0,25.306,3.231041521767072,25,3.2188758248682006,545.4545454545454,40.98360655737705,21.818181818181817,3.0827436505436205,0.069,0.0708,0.004,0.13545,0.384209,CWH,-0.34080392906905344,0,FALSE,FALSE,-0.496315199019077,0.3329786701604396
PKO,VINER SOUND CREEK,905-557500-39800-00000-0000-0000-000-000-000-000-000-000,12,PKO-7,1973,0,25.306,3.231041521767072,300,5.703782474656201,71.42857142857143,545.4545454545454,0.2380952380952381,-1.4350845252893225,0.0686,0.0704,0.004,0.13545,0.384209,CWH,-0.20355231452664888,0,FALSE,FALSE,-0.496315199019077,0.32771503736220986
PKO,VINER SOUND CREEK,905-557500-39800-00000-0000-0000-000-000-000-000-000-000,12,PKO-7,1979,5161.01383987565,25.306,3.231041521767072,500,6.214608098422191,344.8275862068965,1162.7906976744184,0.689655172413793,-0.3715635564324831,0.0597,0.0613,0.004,0.13545,0.384209,CWH,-1.19975713829789,0,FALSE,FALSE,-0.496315199019077,0.20796739120248262
PKO,VINER SOUND CREEK,905-557500-39800-00000-0000-0000-000-000-000-000-000-000,12,PKO-7,1981,0,25.306,3.231041521767072,200,5.298317366548036,1754.3859649122803,344.8275862068965,8.771929824561402,2.1715568305876416,0.0482,0.0495,0.004,0.13545,0.384209,CWH,-0.22613906119882837,0,FALSE,FALSE,-0.496315199019077,0.052690223654704514
PKO,VINER SOUND CREEK,905-557500-39800-00000-0000-0000-000-000-000-000-000-000,12,PKO-7,1983,0,25.306,3.231041521767072,1000,6.907755278982137,100,1754.3859649122803,0.1,-2.3025850929940455,0.0293,0.0301,0.004,0.13545,0.384209,CWH,0.10267616261581472,0,FALSE,FALSE,-0.496315199019077,-0.20259596705943922
PKO,VINER SOUND CREEK,905-557500-39800-00000-0000-0000-000-000-000-000-000-000,12,PKO-7,1991,8.09598628431559,25.306,3.231041521767072,10,2.302585092994046,11.11111111111111,19.23076923076923,1.1111111111111112,0.10536051565782635,0.1224,0.1256,0.004,0.13545,0.384209,CWH,-0.18487911555035336,0,FALSE,FALSE,-0.496315199019077,1.0540963635179175
PKO,VINER SOUND CREEK,905-557500-39800-00000-0000-0000-000-000-000-000-000-000,12,PKO-7,1997,19096.9967381489,25.306,3.231041521767072,1,0,80.8080808080808,1.5384615384615383,80.8080808080808,4.392076970527383,0.17,0.1744,0.004,0.13545,0.384209,CWH,0.8907774948170872,0,FALSE,FALSE,-0.496315199019077,1.6962595649019492
PKO,VINER SOUND CREEK,905-557500-39800-00000-0000-0000-000-000-000-000-000-000,12,PKO-7,1999,2023.11397605494,25.306,3.231041521767072,80,4.382026634673881,161.29032258064518,80.8080808080808,2.016129032258065,0.7011793522572097,0.1536,0.1576,0.004,0.13545,0.384209,CWH,1.6302835492491898,0,FALSE,FALSE,-0.496315199019077,1.4751869873762988
PKO,VINER SOUND CREEK,905-557500-39800-00000-0000-0000-000-000-000-000-000-000,12,PKO-7,2001,0,25.306,3.231041521767072,150,5.0106352940962555,54.43037974683544,161.29032258064518,0.3628691983122363,-1.0137128448816235,0.1561,0.1602,0.004,0.13545,0.384209,CWH,1.9190067210816288,0,FALSE,FALSE,-0.496315199019077,1.5094006005647926
PKO,VINER SOUND CREEK,905-557500-39800-00000-0000-0000-000-000-000-000-000-000,12,PKO-7,2003,0,25.306,3.231041521767072,43,3.7612001156935624,15.789473684210527,54.43037974683544,0.36719706242350064,-1.0018566202038017,0.1607,0.165,0.004,0.13545,0.384209,CWH,0.41101277747559006,0,FALSE,FALSE,-0.496315199019077,1.5725641941435498
PKO,VINER SOUND CREEK,905-557500-39800-00000-0000-0000-000-000-000-000-000-000,12,PKO-7,2005,0,25.306,3.231041521767072,15,2.70805020110221,22.448979591836736,15.789473684210527,1.4965986394557824,0.40319495957362533,0.1528,0.1568,0.004,0.13545,0.384209,CWH,-0.8145696192436794,0,FALSE,FALSE,-0.496315199019077,1.4646597217798394
PKO,VINER SOUND CREEK,905-557500-39800-00000-0000-0000-000-000-000-000-000-000,12,PKO-7,2007,0,25.306,3.231041521767072,22,3.091042453358316,1542.5531914893618,22.448979591836736,70.11605415860735,4.250151785774392,0.1413,0.145,0.004,0.13545,0.384209,CWH,0.8768892458318005,0,FALSE,FALSE,-0.496315199019077,1.3093825542320612
PKO,VINER SOUND CREEK,905-557500-39800-00000-0000-0000-000-000-000-000-000-000,12,PKO-7,2009,134676.357168821,25.306,3.231041521767072,1450,7.27931883541462,1798.529411764706,1542.5531914893618,1.2403651115618664,0.21540578108453712,0.1101,0.1129,0.004,0.13545,0.384209,CWH,1.604652193542091,0,FALSE,FALSE,-0.496315199019077,0.8869760221741226
PKO,VINER SOUND CREEK,905-557500-39800-00000-0000-0000-000-000-000-000-000-000,12,PKO-7,2011,4249.26735183061,25.306,3.231041521767072,1223,7.109062135687172,2460.215053763441,1798.529411764706,2.0116231020142608,0.6989419096473516,0.125,0.1283,0.004,0.13545,0.384209,CWH,0.7408851700104637,0,FALSE,FALSE,-0.496315199019077,1.0896258849059686
PKO,TANKEEAH RIVER,910-463800-00000-00000-0000-0000-000-000-000-000-000-000,7,PKO-12,1955,0,30.004,3.40133070610739,550,6.309918278226516,597.885639615606,1122.69500789235,1.0870647993011018,0.0834812193347845,0.0018,0.0021,0.11,0.2532,0.158363,CWH,-0.07106879047729574,0,FALSE,FALSE,-0.3769757366600755,-0.5710502629355229
PKO,TANKEEAH RIVER,910-463800-00000-00000-0000-0000-000-000-000-000-000-000,7,PKO-12,1957,0,30.004,3.40133070610739,300,5.703782474656201,446.851875806422,597.885639615606,1.4895062526880734,0.39844469100600993,0.0018,0.0021,0.11,0.2532,0.158363,CWH,-0.3276691034772351,0,FALSE,FALSE,-0.3769757366600755,-0.5710502629355229
PKO,TANKEEAH RIVER,910-463800-00000-00000-0000-0000-000-000-000-000-000-000,7,PKO-12,1959,0,30.004,3.40133070610739,300,5.703782474656201,2294.00325091918,446.851875806422,7.646677503063934,2.0342712401721195,3e-4,3e-4,0.11,0.2532,0.158363,CWH,0.7824977620566573,0,FALSE,FALSE,-0.3769757366600755,-0.5947366105275568
PKO,TANKEEAH RIVER,910-463800-00000-00000-0000-0000-000-000-000-000-000-000,7,PKO-12,1961,0,30.004,3.40133070610739,1000,6.907755278982137,2165.52902133447,2294.00325091918,2.16552902133447,0.772664683261094,3e-4,3e-4,0.11,0.2532,0.158363,CWH,0.00583928468743269,0,FALSE,FALSE,-0.3769757366600755,-0.5947366105275568
PKO,TANKEEAH RIVER,910-463800-00000-00000-0000-0000-000-000-000-000-000-000,7,PKO-12,1963,0,30.004,3.40133070610739,1200,7.090076835776092,1936.22813832642,2165.52902133447,1.61352344860535,0.47842026516247643,3e-4,3e-4,0.11,0.2532,0.158363,CWH,0.5797944041154652,0,FALSE,FALSE,-0.3769757366600755,-0.5947366105275568
PKO,TANKEEAH RIVER,910-463800-00000-00000-0000-0000-000-000-000-000-000-000,7,PKO-12,1965,0,30.004,3.40133070610739,800,6.684611727667927,651.226910196356,1936.22813832642,0.814033637745445,-0.205753589821807,3e-4,3e-4,0.11,0.2532,0.158363,CWH,-0.7093794641235007,0,FALSE,FALSE,-0.3769757366600755,-0.5947366105275568
PKO,TANKEEAH RIVER,910-463800-00000-00000-0000-0000-000-000-000-000-000-000,7,PKO-12,1967,77071.3521211818,30.004,3.40133070610739,300,5.703782474656201,896.580714611589,651.226910196356,2.98860238203863,1.0948058473664728,0.0029,0.0032,0.11,0.2532,0.158363,CWH,-0.48089809283299456,0,FALSE,FALSE,-0.3769757366600755,-0.556575272740391
PKO,TANKEEAH RIVER,910-463800-00000-00000-0000-0000-000-000-000-000-000-000,7,PKO-12,1969,0,30.004,3.40133070610739,500,6.214608098422191,2090.78221831595,896.580714611589,4.1815644366319,1.4306854436530088,0.0026,0.0029,0.11,0.2532,0.158363,CWH,0.09673401232408343,0,FALSE,FALSE,-0.3769757366600755,-0.5605229973390633
PKO,TANKEEAH RIVER,910-463800-00000-00000-0000-0000-000-000-000-000-000-000,7,PKO-12,1971,0,30.004,3.40133070610739,1500,7.313220387090301,948.620258490255,2090.78221831595,0.63241350566017,-0.45821181767598324,0.0026,0.0029,0.11,0.2532,0.158363,CWH,-0.34080392906905344,0,FALSE,FALSE,-0.3769757366600755,-0.5605229973390633
PKO,TANKEEAH RIVER,910-463800-00000-00000-0000-0000-000-000-000-000-000-000,7,PKO-12,1973,0,30.004,3.40133070610739,500,6.214608098422191,1533.6349203911,948.620258490255,3.0672698407822,1.120787863258078,0.0026,0.0029,0.11,0.2532,0.158363,CWH,-0.20355231452664888,0,FALSE,FALSE,-0.3769757366600755,-0.5605229973390633
PKO,TANKEEAH RIVER,910-463800-00000-00000-0000-0000-000-000-000-000-000-000,7,PKO-12,1975,0,30.004,3.40133070610739,1000,6.907755278982137,29367.887757139,1533.6349203911,29.367887757139002,3.3799018242429026,0.0026,0.0029,0.11,0.2532,0.158363,CWH,1.2286162579398736,0,FALSE,FALSE,-0.3769757366600755,-0.5605229973390633
PKO,TANKEEAH RIVER,910-463800-00000-00000-0000-0000-000-000-000-000-000-000,7,PKO-12,1977,94138.0490274815,30.004,3.40133070610739,15000,9.615805480084347,13623.1432015316,29367.887757139,0.9082095467687734,-0.09628014862637135,0.0057,0.0064,0.11,0.2532,0.158363,CWH,0.9724829797884954,0,FALSE,FALSE,-0.3769757366600755,-0.5144662103545529
PKO,TANKEEAH RIVER,910-463800-00000-00000-0000-0000-000-000-000-000-000-000,7,PKO-12,1979,0,30.004,3.40133070610739,9000,9.104979856318357,3104.10970383929,13623.1432015316,0.34490107820436555,-1.0644976329080567,0.0051,0.0057,0.11,0.2532,0.158363,CWH,-1.19975713829789,0,FALSE,FALSE,-0.3769757366600755,-0.5236775677514549
PKO,TANKEEAH RIVER,910-463800-00000-00000-0000-0000-000-000-000-000-000-000,7,PKO-12,1981,0,30.004,3.40133070610739,1500,7.313220387090301,3290.86374044633,3104.10970383929,2.1939091602975536,0.7856849573028799,0.0051,0.0057,0.11,0.2532,0.158363,CWH,-0.22613906119882837,0,FALSE,FALSE,-0.3769757366600755,-0.5236775677514549
PKO,TANKEEAH RIVER,910-463800-00000-00000-0000-0000-000-000-000-000-000-000,7,PKO-12,1983,0,30.004,3.40133070610739,2180,7.687080155783135,484.468726354343,3290.86374044633,0.22223336071300137,-1.5040272748238939,0.0051,0.0057,0.11,0.2532,0.158363,CWH,0.10267616261581472,0,FALSE,FALSE,-0.3769757366600755,-0.5236775677514549
PKO,TANKEEAH RIVER,910-463800-00000-00000-0000-0000-000-000-000-000-000-000,7,PKO-12,1985,0,30.004,3.40133070610739,300,5.703782474656201,815.780090400326,484.468726354343,2.7192669680010866,1.000362346928624,0.0051,0.0057,0.11,0.2532,0.158363,CWH,-0.9758993397997916,0,FALSE,FALSE,-0.3769757366600755,-0.5236775677514549
PKO,TANKEEAH RIVER,910-463800-00000-00000-0000-0000-000-000-000-000-000-000,7,PKO-12,1987,37483.3978096335,30.004,3.40133070610739,450,6.1092475827643655,5.96169674940237,815.780090400326,0.013248214998671935,-4.32389245270643,0.0063,0.0071,0.11,0.2532,0.158363,CWH,0.8862048812919091,0,FALSE,FALSE,-0.3769757366600755,-0.5052548529576507
PKO,TANKEEAH RIVER,910-463800-00000-00000-0000-0000-000-000-000-000-000-000,7,PKO-12,1989,0,30.004,3.40133070610739,5,1.6094379124341003,2.83686871288191,5.96169674940237,0.567373742576382,-0.5667370344205528,0.0042,0.0048,0.11,0.2532,0.158363,CWH,0.15947767939610902,0,FALSE,FALSE,-0.3769757366600755,-0.535520741547472
PKO,TANKEEAH RIVER,910-463800-00000-00000-0000-0000-000-000-000-000-000-000,7,PKO-12,2005,0,30.004,3.40133070610739,350,5.857933154483459,198.066998912018,437.140961374915,0.5659057111771942,-0.5693278026824392,0.0024,0.0027,0.11,0.2532,0.158363,CWH,-0.8145696192436794,0,FALSE,FALSE,-0.3769757366600755,-0.5631548137381782
PKO,TANKEEAH RIVER,910-463800-00000-00000-0000-0000-000-000-000-000-000-000,7,PKO-12,2007,0,30.004,3.40133070610739,170,5.135798437050262,3491.39332964347,198.066998912018,20.53760782143218,3.022257733328044,0.0024,0.0027,0.11,0.2532,0.158363,CWH,0.8768892458318005,0,FALSE,FALSE,-0.3769757366600755,-0.5631548137381782
PKO,NAMELESS CREEK,910-481400-21000-00000-0000-0000-000-000-000-000-000-000,7,PKO-12,1955,0,4.623,1.5310438450060884,24000,10.085809109330082,19929.5213205202,48990.3276171208,0.8303967216883418,-0.18585171444879972,0.0065,0.0066,0,0.24636,0.290984,CWH,-0.07106879047729574,0,FALSE,FALSE,-1.6876815769962243,-0.511834393955438
PKO,NAMELESS CREEK,910-481400-21000-00000-0000-0000-000-000-000-000-000-000,7,PKO-12,1957,0,4.623,1.5310438450060884,10000,9.210340371976184,3723.76563172019,19929.5213205202,0.372376563172019,-0.9878496701138789,0.0065,0.0066,0,0.24636,0.290984,CWH,-0.3276691034772351,0,FALSE,FALSE,-1.6876815769962243,-0.511834393955438
PKO,NAMELESS CREEK,910-481400-21000-00000-0000-0000-000-000-000-000-000-000,7,PKO-12,1959,0,4.623,1.5310438450060884,2500,7.824046010856292,4588.00650183836,3723.76563172019,1.8352026007353441,0.6071548845319739,0.0022,0.0022,0,0.24636,0.290984,CWH,0.7824977620566573,0,FALSE,FALSE,-1.6876815769962243,-0.5697343547359655
PKO,NAMELESS CREEK,910-481400-21000-00000-0000-0000-000-000-000-000-000-000,7,PKO-12,1961,0,4.623,1.5310438450060884,2000,7.600902459542082,3609.21503555745,4588.00650183836,1.804607517778725,0.5903431264671395,0.0022,0.0022,0,0.24636,0.290984,CWH,0.00583928468743269,0,FALSE,FALSE,-1.6876815769962243,-0.5697343547359655
PKO,NAMELESS CREEK,910-481400-21000-00000-0000-0000-000-000-000-000-000-000,7,PKO-12,1963,0,4.623,1.5310438450060884,2000,7.600902459542082,1452.17110374482,3609.21503555745,0.72608555187241,-0.3200874310552918,0.0022,0.0022,0,0.24636,0.290984,CWH,0.5797944041154652,0,FALSE,FALSE,-1.6876815769962243,-0.5697343547359655
PKO,NAMELESS CREEK,910-481400-21000-00000-0000-0000-000-000-000-000-000-000,7,PKO-12,1965,0,4.623,1.5310438450060884,600,6.396929655216146,651.226910196356,1452.17110374482,1.0853781836605934,0.08192848262997394,0.0022,0.0022,0,0.24636,0.290984,CWH,-0.7093794641235007,0,FALSE,FALSE,-1.6876815769962243,-0.5697343547359655
PKO,NAMELESS CREEK,910-481400-21000-00000-0000-0000-000-000-000-000-000-000,7,PKO-12,1967,0,4.623,1.5310438450060884,300,5.703782474656201,1793.16142922318,651.226910196356,5.977204764077267,1.7879530279264193,0.0022,0.0022,0,0.24636,0.290984,CWH,-0.48089809283299456,0,FALSE,FALSE,-1.6876815769962243,-0.5697343547359655