Species,River,WATERSHED_CDE,DFO,CU,BroodYear,hararea_m2_3005,area_km2,ln_area_km2,Spawners,logS,Recruits,Returns,recruitPerSpawner,ln_RS,ECA_age_proxy,ECA_age_proxy_forested_only,lake_cover_pct,var_eaubc_KFACTOR,var_eaubc_MELTONS_R,vri_bec_zone,npgo,portion_reporting_vri_cover1_missing,hatchery_enhancement,year_of_enhacement,ln_area_km2_std,ECA_age_proxy_forested_only_std
PKO,HIRD POINT CREEK,910-487400-00000-00000-0000-0000-000-000-000-000-000-000,7,PKO-12,2007,0,16.316,2.792146221455312,8400,9.035986984831405,11637.9777654782,9786.83994624089,1.3854735435093095,0.32604198987283356,0.0028,0.003,0.013,0.27071,0.293268,CWH,0.8768892458318005,0,FALSE,FALSE,-0.8038950924456786,-0.5592070891395059
PKO,HIRD POINT CREEK,910-487400-00000-00000-0000-0000-000-000-000-000-000-000,7,PKO-12,2013,0,16.316,2.792146221455312,9300,9.137769679141348,684.261142613081,11243.1391055705,0.07357646694764312,-2.609430046935054,0.0011,0.0011,0.013,0.27071,0.293268,CWH,-0.5528640906240193,0,FALSE,FALSE,-0.8038950924456786,-0.5842093449310973
PKO,LARD CREEK,910-498900-00000-00000-0000-0000-000-000-000-000-000-000,7,PKO-13,1963,0,49.573,3.9034463306772866,400,5.991464547107982,228.004464072042,784.910517581357,0.570011160180105,-0.5620993390818704,0.0486,0.1061,0.006,-9.57178,0.321542,CWH,0.5797944041154652,5.8812059109029e-4,FALSE,FALSE,-0.02509074225859381,0.7974942646042165
PKO,LARD CREEK,910-498900-00000-00000-0000-0000-000-000-000-000-000-000,7,PKO-13,1969,0,49.573,3.9034463306772866,20,2.995732273553991,258.691726403243,23.3797124013883,12.93458632016215,2.5599048336934214,0.0571,0.1247,0.006,-9.57178,0.321542,CWH,0.09673401232408343,5.8812059109029e-4,FALSE,FALSE,-0.02509074225859381,1.0422531897219007
PKO,LARD CREEK,910-498900-00000-00000-0000-0000-000-000-000-000-000-000,7,PKO-13,1971,0,49.573,3.9034463306772866,200,5.298317366548036,863.800396818846,258.691726403243,4.31900198409423,1.46302435336587,0.0571,0.1247,0.006,-9.57178,0.321542,CWH,-0.34080392906905344,5.8812059109029e-4,FALSE,FALSE,-0.02509074225859381,1.0422531897219007
PKO,LARD CREEK,910-498900-00000-00000-0000-0000-000-000-000-000-000-000,7,PKO-13,1973,0,49.573,3.9034463306772866,500,6.214608098422191,574.172795855997,863.800396818846,1.148345591711994,0.13832229067115442,0.0571,0.1247,0.006,-9.57178,0.321542,CWH,-0.20355231452664888,5.8812059109029e-4,FALSE,FALSE,-0.02509074225859381,1.0422531897219007
PKO,LARD CREEK,910-498900-00000-00000-0000-0000-000-000-000-000-000-000,7,PKO-13,1975,0,49.573,3.9034463306772866,400,5.991464547107982,344.319547463849,574.172795855997,0.8607988686596225,-0.14989440386495273,0.0511,0.1118,0.006,-9.57178,0.321542,CWH,1.2286162579398736,5.8812059109029e-4,FALSE,FALSE,-0.02509074225859381,0.8725010319789905
PKO,LARD CREEK,910-498900-00000-00000-0000-0000-000-000-000-000-000-000,7,PKO-13,1977,0,49.573,3.9034463306772866,200,5.298317366548036,630.888855371587,344.319547463849,3.1544442768579355,1.1488123400215515,0.0466,0.1019,0.006,-9.57178,0.321542,CWH,0.9724829797884954,5.8812059109029e-4,FALSE,FALSE,-0.02509074225859381,0.742226120222804
PKO,LARD CREEK,910-498900-00000-00000-0000-0000-000-000-000-000-000-000,7,PKO-13,1979,0,49.573,3.9034463306772866,375,5.926926025970411,1344.15923859434,630.888855371587,3.584424636251573,1.2765979691913323,0.0466,0.1019,0.006,-9.57178,0.321542,CWH,-1.19975713829789,5.8812059109029e-4,FALSE,FALSE,-0.02509074225859381,0.742226120222804
PKO,LARD CREEK,910-498900-00000-00000-0000-0000-000-000-000-000-000-000,7,PKO-13,1981,0,49.573,3.9034463306772866,460,6.131226489483141,687.508137840466,1344.15923859434,1.4945829083488391,0.40184717684639026,0.0466,0.1019,0.006,-9.57178,0.321542,CWH,-0.22613906119882837,5.8812059109029e-4,FALSE,FALSE,-0.02509074225859381,0.742226120222804
PKO,LARD CREEK,910-498900-00000-00000-0000-0000-000-000-000-000-000-000,7,PKO-13,1983,0,49.573,3.9034463306772866,400,5.991464547107982,9098.87570251919,687.508137840466,22.747189256297975,3.124441588590416,0.0466,0.1019,0.006,-9.57178,0.321542,CWH,0.10267616261581472,5.8812059109029e-4,FALSE,FALSE,-0.02509074225859381,0.742226120222804
PKO,LARD CREEK,910-498900-00000-00000-0000-0000-000-000-000-000-000-000,7,PKO-13,1985,0,49.573,3.9034463306772866,5000,8.517193191416238,51.4382631145386,9098.87570251919,0.01028765262290772,-4.5768108773264,0.0348,0.0761,0.006,-9.57178,0.321542,CWH,-0.9758993397997916,5.8812059109029e-4,FALSE,FALSE,-0.02509074225859381,0.402721804736984
PKO,LARD CREEK,910-498900-00000-00000-0000-0000-000-000-000-000-000-000,7,PKO-13,1987,0,49.573,3.9034463306772866,25,3.2188758248682006,1000.80425742131,51.4382631145386,40.0321702968524,3.689683388293548,0.0182,0.0397,0.006,-9.57178,0.321542,CWH,0.8862048812919091,5.8812059109029e-4,FALSE,FALSE,-0.02509074225859381,-0.07626877990192481
PKO,LARD CREEK,910-498900-00000-00000-0000-0000-000-000-000-000-000-000,7,PKO-13,1989,0,49.573,3.9034463306772866,900,6.802394763324311,1844.77354847307,1000.80425742131,2.0497483871923,0.7177170476624221,0.0182,0.0397,0.006,-9.57178,0.321542,CWH,0.15947767939610902,5.8812059109029e-4,FALSE,FALSE,-0.02509074225859381,-0.07626877990192481
PKO,LARD CREEK,910-498900-00000-00000-0000-0000-000-000-000-000-000-000,7,PKO-13,1991,0,49.573,3.9034463306772866,1400,7.24422751560335,321.019462620311,1844.77354847307,0.229299616157365,-1.4727257630954098,0.0182,0.0397,0.006,-9.57178,0.321542,CWH,-0.18487911555035336,5.8812059109029e-4,FALSE,FALSE,-0.02509074225859381,-0.07626877990192481
PKO,LARD CREEK,910-498900-00000-00000-0000-0000-000-000-000-000-000-000,7,PKO-13,1993,0,49.573,3.9034463306772866,300,5.703782474656201,28.4221238739933,321.019462620311,0.094740412913311,-2.3566146231119145,0.0182,0.0397,0.006,-9.57178,0.321542,CWH,-1.7567819796155162,5.8812059109029e-4,FALSE,FALSE,-0.02509074225859381,-0.07626877990192481
PKO,LARD CREEK,910-498900-00000-00000-0000-0000-000-000-000-000-000-000,7,PKO-13,1995,0,49.573,3.9034463306772866,25,3.2188758248682006,647.682528088331,28.4221238739933,25.907301123533237,3.2545248256416084,0.0182,0.0397,0.006,-9.57178,0.321542,CWH,-0.5672147431639023,5.8812059109029e-4,FALSE,FALSE,-0.02509074225859381,-0.07626877990192481
PKO,LARD CREEK,910-498900-00000-00000-0000-0000-000-000-000-000-000-000,7,PKO-13,1997,0,49.573,3.9034463306772866,550,6.309918278226516,546.707073626111,647.682528088331,0.9940128611383836,-0.006005133638258526,0.0112,0.0244,0.006,-9.57178,0.321542,CWH,0.8907774948170872,5.8812059109029e-4,FALSE,FALSE,-0.02509074225859381,-0.27760273443421335
PKO,LARD CREEK,910-498900-00000-00000-0000-0000-000-000-000-000-000-000,7,PKO-13,2003,0,49.573,3.9034463306772866,1000,6.907755278982137,596.870383855745,1475.47354556199,0.596870383855745,-0.516055301631298,0.0112,0.0244,0.006,-9.57178,0.321542,CWH,0.41101277747559006,5.8812059109029e-4,FALSE,FALSE,-0.02509074225859381,-0.27760273443421335
PKO,LARD CREEK,910-498900-00000-00000-0000-0000-000-000-000-000-000-000,7,PKO-13,2005,0,49.573,3.9034463306772866,400,5.991464547107982,498.0856644061,596.870383855745,1.24521416101525,0.21930753200318284,0.0065,0.0141,0.006,-9.57178,0.321542,CWH,-0.8145696192436794,5.8812059109029e-4,FALSE,FALSE,-0.02509074225859381,-0.41314127898862985
PKO,LARD CREEK,910-498900-00000-00000-0000-0000-000-000-000-000-000-000,7,PKO-13,2007,0,49.573,3.9034463306772866,400,5.991464547107982,1547.87076303819,498.0856644061,3.869676907595475,1.3531710171470681,0.0037,0.0081,0.006,-9.57178,0.321542,CWH,0.8768892458318005,5.8812059109029e-4,FALSE,FALSE,-0.02509074225859381,-0.49209577096207635
PKO,LARD CREEK,910-498900-00000-00000-0000-0000-000-000-000-000-000-000,7,PKO-13,2009,0,49.573,3.9034463306772866,1200,7.090076835776092,1306.16161269675,1547.87076303819,1.0884680105806248,0.08477121272650691,0.0037,0.0081,0.006,-9.57178,0.321542,CWH,1.604652193542091,5.8812059109029e-4,FALSE,FALSE,-0.02509074225859381,-0.49209577096207635
PKO,LARD CREEK,910-498900-00000-00000-0000-0000-000-000-000-000-000-000,7,PKO-13,2011,0,49.573,3.9034463306772866,1100,7.003065458786462,3923.12114751628,1306.16161269675,3.5664737704693454,1.2715773682912321,0.0037,0.0081,0.006,-9.57178,0.321542,CWH,0.7408851700104637,5.8812059109029e-4,FALSE,FALSE,-0.02509074225859381,-0.49209577096207635
PKO,LARD CREEK,910-498900-00000-00000-0000-0000-000-000-000-000-000-000,7,PKO-13,2013,0,49.573,3.9034463306772866,3000,8.006367567650246,560.535653251389,3923.12114751628,0.186845217750463,-1.6774747174351057,0.0037,0.0081,0.006,-9.57178,0.321542,CWH,-0.5528640906240193,5.8812059109029e-4,FALSE,FALSE,-0.02509074225859381,-0.49209577096207635
PKO,KAINET CREEK,910-500000-00000-00000-0000-0000-000-000-000-000-000-000,7,PKO-13,1955,0,68.268,4.22344113555651,110000,11.608235644774552,132886.563274022,210490.122365428,1.2080596661274725,0.18901549078248392,0.0568,0.1033,0.014,-1.76392,0.268992,CWH,-0.07106879047729574,3.9670885334324e-4,FALSE,FALSE,0.1991631240095216,0.7606488350166082
PKO,KAINET CREEK,910-500000-00000-00000-0000-0000-000-000-000-000-000-000,7,PKO-13,1957,0,68.268,4.22344113555651,75000,11.225243392518447,151284.449398005,132886.563274022,2.0171259919734,0.7016737220551275,0.0459,0.0835,0.014,-1.76392,0.268992,CWH,-0.3276691034772351,3.9670885334324e-4,FALSE,FALSE,0.1991631240095216,0.5000990115042347
PKO,KAINET CREEK,910-500000-00000-00000-0000-0000-000-000-000-000-000-000,7,PKO-13,1959,0,68.268,4.22344113555651,110000,11.608235644774552,295399.567074604,151284.449398005,2.685450609769127,0.9878485387472692,0.0459,0.0835,0.014,-1.76392,0.268992,CWH,0.7824977620566573,3.9670885334324e-4,FALSE,FALSE,0.1991631240095216,0.5000990115042347
PKO,KAINET CREEK,910-500000-00000-00000-0000-0000-000-000-000-000-000-000,7,PKO-13,1961,0,68.268,4.22344113555651,150000,11.918390573078392,294341.444093009,295399.567074604,1.9622762939533933,0.6741051738348136,0.0459,0.0835,0.014,-1.76392,0.268992,CWH,0.00583928468743269,3.9670885334324e-4,FALSE,FALSE,0.1991631240095216,0.5000990115042347
PKO,KAINET CREEK,910-500000-00000-00000-0000-0000-000-000-000-000-000-000,7,PKO-13,1963,0,68.268,4.22344113555651,150000,11.918390573078392,136802.678443225,294341.444093009,0.9120178562881668,-0.09209570983613617,0.0459,0.0835,0.014,-1.76392,0.268992,CWH,0.5797944041154652,3.9670885334324e-4,FALSE,FALSE,0.1991631240095216,0.5000990115042347
PKO,KAINET CREEK,910-500000-00000-00000-0000-0000-000-000-000-000-000-000,7,PKO-13,1965,0,68.268,4.22344113555651,45000,10.714417768752456,116396.490648717,136802.678443225,2.5865886810826,0.9503398960065204,0.0459,0.0835,0.014,-1.76392,0.268992,CWH,-0.7093794641235007,3.9670885334324e-4,FALSE,FALSE,0.1991631240095216,0.5000990115042347
PKO,KAINET CREEK,910-500000-00000-00000-0000-0000-000-000-000-000-000-000,7,PKO-13,1967,0,68.268,4.22344113555651,80000,11.289781913656018,46759.4248027766,116396.490648717,0.5844928100347075,-0.5370107991983543,0.0524,0.0953,0.014,-1.76392,0.268992,CWH,-0.48089809283299456,3.9670885334324e-4,FALSE,FALSE,0.1991631240095216,0.6553761790520127
PKO,KAINET CREEK,910-500000-00000-00000-0000-0000-000-000-000-000-000-000,7,PKO-13,1969,0,68.268,4.22344113555651,40000,10.596634733096073,97009.397401216,46759.4248027766,2.4252349350304,0.8859284001217484,0.0524,0.0953,0.014,-1.76392,0.268992,CWH,0.09673401232408343,3.9670885334324e-4,FALSE,FALSE,0.1991631240095216,0.6553761790520127
PKO,KAINET CREEK,910-500000-00000-00000-0000-0000-000-000-000-000-000-000,7,PKO-13,1971,0,68.268,4.22344113555651,75000,11.225243392518447,51828.0238091307,97009.397401216,0.691040317455076,-0.3695571103824413,0.0524,0.0953,0.014,-1.76392,0.268992,CWH,-0.34080392906905344,3.9670885334324e-4,FALSE,FALSE,0.1991631240095216,0.6553761790520127
PKO,KAINET CREEK,910-500000-00000-00000-0000-0000-000-000-000-000-000-000,7,PKO-13,1973,0,68.268,4.22344113555651,30000,10.308952660644293,28708.6397927999,51828.0238091307,0.9569546597599966,-0.043999266122798544,0.0524,0.0953,0.014,-1.76392,0.268992,CWH,-0.20355231452664888,3.9670885334324e-4,FALSE,FALSE,0.1991631240095216,0.6553761790520127
PKO,KAINET CREEK,910-500000-00000-00000-0000-0000-000-000-000-000-000-000,7,PKO-13,1975,0,68.268,4.22344113555651,20000,9.903487552536127,27545.5637971079,28708.6397927999,1.377278189855395,0.320109225380782,0.0524,0.0953,0.014,-1.76392,0.268992,CWH,1.2286162579398736,3.9670885334324e-4,FALSE,FALSE,0.1991631240095216,0.6553761790520127
PKO,KAINET CREEK,910-500000-00000-00000-0000-0000-000-000-000-000-000-000,7,PKO-13,1977,0,68.268,4.22344113555651,16000,9.680344001221918,100942.216859454,27545.5637971079,6.3088885537158745,1.8419595205814974,0.0299,0.0543,0.014,-1.76392,0.268992,CWH,0.9724829797884954,3.9670885334324e-4,FALSE,FALSE,0.1991631240095216,0.11585381723346169
PKO,KAINET CREEK,910-500000-00000-00000-0000-0000-000-000-000-000-000-000,7,PKO-13,1979,0,68.268,4.22344113555651,60000,11.002099841204238,233766.824103363,100942.216859454,3.89611373505605,1.3599795781303814,0.0299,0.0543,0.014,-1.76392,0.268992,CWH,-1.19975713829789,3.9670885334324e-4,FALSE,FALSE,0.1991631240095216,0.11585381723346169
PKO,KAINET CREEK,910-500000-00000-00000-0000-0000-000-000-000-000-000-000,7,PKO-13,1981,0,68.268,4.22344113555651,80000,11.289781913656018,120313.924122082,233766.824103363,1.503924051526025,0.40807772659703007,0.0299,0.0543,0.014,-1.76392,0.268992,CWH,-0.22613906119882837,3.9670885334324e-4,FALSE,FALSE,0.1991631240095216,0.11585381723346169
PKO,KAINET CREEK,910-500000-00000-00000-0000-0000-000-000-000-000-000-000,7,PKO-13,1983,0,68.268,4.22344113555651,70000,11.156250521031495,181977.514050384,120313.924122082,2.599678772148343,0.9553878882208943,0.0299,0.0543,0.014,-1.76392,0.268992,CWH,0.10267616261581472,3.9670885334324e-4,FALSE,FALSE,0.1991631240095216,0.11585381723346169
PKO,KAINET CREEK,910-500000-00000-00000-0000-0000-000-000-000-000-000-000,7,PKO-13,1985,0,68.268,4.22344113555651,100000,11.512925464970229,41150.6104916308,181977.514050384,0.411506104916308,-0.887931423212466,0.0299,0.0543,0.014,-1.76392,0.268992,CWH,-0.9758993397997916,3.9670885334324e-4,FALSE,FALSE,0.1991631240095216,0.11585381723346169
PKO,KAINET CREEK,910-500000-00000-00000-0000-0000-000-000-000-000-000-000,7,PKO-13,1987,0,68.268,4.22344113555651,20000,9.903487552536127,72280.307480428,41150.6104916308,3.6140153740214003,1.2848194461790847,0.0155,0.0282,0.014,-1.76392,0.268992,CWH,0.8862048812919091,3.9670885334324e-4,FALSE,FALSE,0.1991631240095216,-0.2275982228510306
PKO,KAINET CREEK,910-500000-00000-00000-0000-0000-000-000-000-000-000-000,7,PKO-13,1989,0,68.268,4.22344113555651,65000,11.082142548877775,114639.499083684,72280.307480428,1.763684601287446,0.5674051441423326,0.0155,0.0282,0.014,-1.76392,0.268992,CWH,0.15947767939610902,3.9670885334324e-4,FALSE,FALSE,0.1991631240095216,-0.2275982228510306
PKO,KAINET CREEK,910-500000-00000-00000-0000-0000-000-000-000-000-000-000,7,PKO-13,1991,9135.91473157401,68.268,4.22344113555651,87000,11.37366339763672,88815.384658286,114639.499083684,1.0208664903251263,0.02065176699375266,0.0156,0.0284,0.014,-1.76392,0.268992,CWH,-0.18487911555035336,3.9670885334324e-4,FALSE,FALSE,0.1991631240095216,-0.22496640645191568
PKO,KAINET CREEK,910-500000-00000-00000-0000-0000-000-000-000-000-000-000,7,PKO-13,1993,0,68.268,4.22344113555651,83000,11.326595886778735,45475.3981983893,88815.384658286,0.5478963638360157,-0.6016691270065755,0.0156,0.0284,0.014,-1.76392,0.268992,CWH,-1.7567819796155162,3.9670885334324e-4,FALSE,FALSE,0.1991631240095216,-0.22496640645191568
PKO,KAINET CREEK,910-500000-00000-00000-0000-0000-000-000-000-000-000-000,7,PKO-13,1995,0,68.268,4.22344113555651,40000,10.596634733096073,47104.1838609695,45475.3981983893,1.1776045965242374,0.1634823722832922,0.0156,0.0284,0.014,-1.76392,0.268992,CWH,-0.5672147431639023,3.9670885334324e-4,FALSE,FALSE,0.1991631240095216,-0.22496640645191568
PKO,KAINET CREEK,910-500000-00000-00000-0000-0000-000-000-000-000-000-000,7,PKO-13,1997,0,68.268,4.22344113555651,40000,10.596634733096073,43736.5658900889,47104.1838609695,1.0934141472522225,0.08930504616606684,0.0078,0.0142,0.014,-1.76392,0.268992,CWH,0.8907774948170872,3.9670885334324e-4,FALSE,FALSE,0.1991631240095216,-0.41182537078907244
PKO,KAINET CREEK,910-500000-00000-00000-0000-0000-000-000-000-000-000-000,7,PKO-13,1999,0,68.268,4.22344113555651,40000,10.596634733096073,171952.536072479,43736.5658900889,4.298813401811975,1.4583390315504805,0.0078,0.0142,0.014,-1.76392,0.268992,CWH,1.6302835492491898,3.9670885334324e-4,FALSE,FALSE,0.1991631240095216,-0.41182537078907244
PKO,KAINET CREEK,910-500000-00000-00000-0000-0000-000-000-000-000-000-000,7,PKO-13,2001,0,68.268,4.22344113555651,126000,11.744037185933616,137219.039737265,171952.536072479,1.0890399979148015,0.08529657230736815,0.0078,0.0142,0.014,-1.76392,0.268992,CWH,1.9190067210816288,3.9670885334324e-4,FALSE,FALSE,0.1991631240095216,-0.41182537078907244
PKO,KAINET CREEK,910-500000-00000-00000-0000-0000-000-000-000-000-000-000,7,PKO-13,2003,0,68.268,4.22344113555651,93000,11.440354772135393,76100.9739416075,137219.039737265,0.8182900423828764,-0.20053843018607284,0.0078,0.0142,0.014,-1.76392,0.268992,CWH,0.41101277747559006,3.9670885334324e-4,FALSE,FALSE,0.1991631240095216,-0.41182537078907244
PKO,KAINET CREEK,910-500000-00000-00000-0000-0000-000-000-000-000-000-000,7,PKO-13,2005,0,68.268,4.22344113555651,51000,10.839580911706463,41092.0673135032,76100.9739416075,0.8057268100686902,-0.21601053925466399,0.0078,0.0142,0.014,-1.76392,0.268992,CWH,-0.8145696192436794,3.9670885334324e-4,FALSE,FALSE,0.1991631240095216,-0.41182537078907244
PKO,KAINET CREEK,910-500000-00000-00000-0000-0000-000-000-000-000-000-000,7,PKO-13,2007,0,68.268,4.22344113555651,33000,10.404262840448617,77393.5381519095,41092.0673135032,2.3452587318760454,0.852395729234579,0.0025,0.0045,0.014,-1.76392,0.268992,CWH,0.8768892458318005,3.9670885334324e-4,FALSE,FALSE,0.1991631240095216,-0.5394684661461443
PKO,KAINET CREEK,910-500000-00000-00000-0000-0000-000-000-000-000-000-000,7,PKO-13,2009,0,68.268,4.22344113555651,60000,11.002099841204238,41559.6876767148,77393.5381519095,0.69266146127858,-0.36721391101654954,0.0025,0.0045,0.014,-1.76392,0.268992,CWH,1.604652193542091,3.9670885334324e-4,FALSE,FALSE,0.1991631240095216,-0.5394684661461443
PKO,KAINET CREEK,910-500000-00000-00000-0000-0000-000-000-000-000-000-000,7,PKO-13,2011,0,68.268,4.22344113555651,35000,10.46310334047155,80162.4421142494,41559.6876767148,2.290355488978554,0.8287070408802003,0.0025,0.0045,0.014,-1.76392,0.268992,CWH,0.7408851700104637,3.9670885334324e-4,FALSE,FALSE,0.1991631240095216,-0.5394684661461443
PKO,KAINET CREEK,910-500000-00000-00000-0000-0000-000-000-000-000-000-000,7,PKO-13,2013,0,68.268,4.22344113555651,61300,11.023535121924303,19058.2122105472,80162.4421142494,0.310900688589677,-1.1682817470930016,0.0024,0.0044,0.014,-1.76392,0.268992,CWH,-0.5528640906240193,3.9670885334324e-4,FALSE,FALSE,0.1991631240095216,-0.5407843743457017
PKO,BIG CREEK,910-500200-00000-00000-0000-0000-000-000-000-000-000-000,7,PKO-13,1961,0,7.042,1.9518922207328608,15000,9.615805480084347,29434.1444093009,29539.9567074604,1.9622762939533933,0.6741051738348136,0.0042,0.0069,0.008,0.23083,0.463044,CWH,0.00583928468743269,0,FALSE,FALSE,-1.3927490533103908,-0.5078866693567657
PKO,BIG CREEK,910-500200-00000-00000-0000-0000-000-000-000-000-000-000,7,PKO-13,1963,0,7.042,1.9518922207328608,15000,9.615805480084347,2432.04761676844,29434.1444093009,0.16213650778456268,-1.8193166579266218,0.0042,0.0069,0.008,0.23083,0.463044,CWH,0.5797944041154652,0,FALSE,FALSE,-1.3927490533103908,-0.5078866693567657
PKO,BIG CREEK,910-500200-00000-00000-0000-0000-000-000-000-000-000-000,7,PKO-13,1965,0,7.042,1.9518922207328608,800,6.684611727667927,727.47806655448,2432.04761676844,0.9093475831931,-0.09502787814277876,0.0042,0.0069,0.008,0.23083,0.463044,CWH,-0.7093794641235007,0,FALSE,FALSE,-1.3927490533103908,-0.5078866693567657