Species,River,WATERSHED_CDE,DFO,CU,BroodYear,hararea_m2_3005,area_km2,ln_area_km2,Spawners,logS,Recruits,Returns,recruitPerSpawner,ln_RS,ECA_age_proxy,ECA_age_proxy_forested_only,lake_cover_pct,var_eaubc_KFACTOR,var_eaubc_MELTONS_R,vri_bec_zone,npgo,portion_reporting_vri_cover1_missing,hatchery_enhancement,year_of_enhacement,ln_area_km2_std,ECA_age_proxy_forested_only_std
PKO,HONNA RIVER,940-103900-00000-00000-0000-0000-000-000-000-000-000-000,2,PKO-9,1979,734646.76821029,47.632,3.8635048042734206,50,3.912023005428146,20.3437662564811,50,0.406875325129622,-0.8992484669299219,0.2323,0.2342,0.006,0.17012,0.133327,CWH,-1.19975713829789,0,FALSE,FALSE,-0.05308195206619571,2.4831726682372994
PKO,HONNA RIVER,940-103900-00000-00000-0000-0000-000-000-000-000-000-000,2,PKO-9,1981,1073828.62273567,47.632,3.8635048042734206,20,2.995732273553991,400,20.3437662564811,20,2.995732273553991,0.2527,0.2548,0.006,0.17012,0.133327,CWH,-0.22613906119882837,0,FALSE,FALSE,-0.05308195206619571,2.7542497573461326
PKO,HONNA RIVER,940-103900-00000-00000-0000-0000-000-000-000-000-000-000,2,PKO-9,1983,0,47.632,3.8635048042734206,400,5.991464547107982,265.328050214947,400,0.6633201255373674,-0.4104975613801401,0.2526,0.2547,0.006,0.17012,0.133327,CWH,0.10267616261581472,0,FALSE,FALSE,-0.05308195206619571,2.7529338491465745
PKO,HONNA RIVER,940-103900-00000-00000-0000-0000-000-000-000-000-000-000,2,PKO-9,1985,1332090.25615409,47.632,3.8635048042734206,200,5.298317366548036,301.145999053558,265.328050214947,1.50572999526779,0.4092778272932802,0.2598,0.2619,0.006,0.17012,0.133327,CWH,-0.9758993397997916,0,FALSE,FALSE,-0.05308195206619571,2.847679239514711
PKO,HONNA RIVER,940-103900-00000-00000-0000-0000-000-000-000-000-000-000,2,PKO-9,1987,16.126657418532,47.632,3.8635048042734206,300,5.703782474656201,454.474580328308,301.145999053558,1.5149152677610267,0.41535950852664544,0.2069,0.2086,0.006,0.17012,0.133327,CWH,0.8862048812919091,0,FALSE,FALSE,-0.05308195206619571,2.1463001691505945
PKO,HONNA RIVER,940-103900-00000-00000-0000-0000-000-000-000-000-000-000,2,PKO-9,1989,13839.0032425273,47.632,3.8635048042734206,425,6.052089168924417,40.1798716241048,454.474580328308,0.09454087440965835,-2.3587230045625236,0.1989,0.2006,0.006,0.17012,0.133327,CWH,0.15947767939610902,0,FALSE,FALSE,-0.05308195206619571,2.0410275131859987
PKO,HONNA RIVER,940-103900-00000-00000-0000-0000-000-000-000-000-000-000,2,PKO-9,1991,1311907.94705158,47.632,3.8635048042734206,40,3.6888794541139363,50.2994317627924,40.1798716241048,1.25748579406981,0.2291143259655684,0.251,0.253,0.006,0.17012,0.133327,CWH,-0.18487911555035336,0,FALSE,FALSE,-0.05308195206619571,2.7305634097540983
PKO,HONNA RIVER,940-103900-00000-00000-0000-0000-000-000-000-000-000-000,2,PKO-9,1993,21741.2625449937,47.632,3.8635048042734206,50,3.912023005428146,10.0406605989174,50.2994317627924,0.200813211978348,-1.605380096624151,0.25,0.2521,0.006,0.17012,0.133327,CWH,-1.7567819796155162,0,FALSE,FALSE,-0.05308195206619571,2.7187202359580813
PKO,HONNA RIVER,940-103900-00000-00000-0000-0000-000-000-000-000-000-000,2,PKO-9,1995,12499.1067801096,47.632,3.8635048042734206,10,2.302585092994046,51.5137160183307,10.0406605989174,5.15137160183307,1.6392630096690088,0.2531,0.2552,0.006,0.17012,0.133327,CWH,-0.5672147431639023,0,FALSE,FALSE,-0.05308195206619571,2.759513390144362
PKO,HONNA RIVER,940-103900-00000-00000-0000-0000-000-000-000-000-000-000,2,PKO-9,1997,0,47.632,3.8635048042734206,50,3.912023005428146,50,51.5137160183307,1,0,0.2302,0.2321,0.006,0.17012,0.133327,CWH,0.8907774948170872,0,FALSE,FALSE,-0.05308195206619571,2.455538596046593
PKO,COPPER CREEK,950-010400-00000-00000-0000-0000-000-000-000-000-000-000,2,PKO-9,1955,7101393.08935063,147.078,4.990963058298735,15000,9.615805480084347,96399.9560361115,25011.1758687693,6.4266637357407665,1.8604555444572513,0.2692,0.2857,0.054,0.17571,0.071569,CWH,-0.07106879047729574,0,FALSE,FALSE,0.7370461020955107,3.160865391009382
PKO,COPPER CREEK,950-010400-00000-00000-0000-0000-000-000-000-000-000-000,2,PKO-9,1957,6475875.71689726,147.078,4.990963058298735,35000,10.46310334047155,132636.95571447,96399.9560361115,3.7896273061277146,1.332267678144963,0.3635,0.3858,0.054,0.17571,0.071569,CWH,-0.3276691034772351,0,FALSE,FALSE,0.7370461020955107,4.47808949876638
PKO,COPPER CREEK,950-010400-00000-00000-0000-0000-000-000-000-000-000-000,2,PKO-9,1959,2278108.82181029,147.078,4.990963058298735,130000,11.77528972943772,19093.7874377062,132636.95571447,0.14687528798235538,-1.9181714333547055,0.4042,0.429,0.054,0.17571,0.071569,CWH,0.7824977620566573,0,FALSE,FALSE,0.7370461020955107,5.046561840975195
PKO,COPPER CREEK,950-010400-00000-00000-0000-0000-000-000-000-000-000-000,2,PKO-9,1961,1944273.59999082,147.078,4.990963058298735,15000,9.615805480084347,25000.7546127769,19093.7874377062,1.6667169741851267,0.5108558078215235,0.4297,0.456,0.054,0.17571,0.071569,CWH,0.00583928468743269,0,FALSE,FALSE,0.7370461020955107,5.4018570548557046
PKO,COPPER CREEK,950-010400-00000-00000-0000-0000-000-000-000-000-000-000,2,PKO-9,1963,664785.63992139,147.078,4.990963058298735,25000,10.126631103850338,8031.39576208404,25000.7546127769,0.3212558304833616,-1.1355174935728556,0.4368,0.4636,0.054,0.17571,0.071569,CWH,0.5797944041154652,0,FALSE,FALSE,0.7370461020955107,5.50186607802207
PKO,COPPER CREEK,950-010400-00000-00000-0000-0000-000-000-000-000-000-000,2,PKO-9,1965,1684181.66540061,147.078,4.990963058298735,8000,8.987196820661973,41082.7279410788,8031.39576208404,5.13534099263485,1.636146246752176,0.4402,0.4672,0.054,0.17571,0.071569,CWH,-0.7093794641235007,0,FALSE,FALSE,0.7370461020955107,5.549238773206138
PKO,COPPER CREEK,950-010400-00000-00000-0000-0000-000-000-000-000-000-000,2,PKO-9,1967,3475870.23891105,147.078,4.990963058298735,40000,10.596634733096073,82122.9326450953,41082.7279410788,2.0530733161273824,0.719337849102696,0.4575,0.4855,0.054,0.17571,0.071569,CWH,-0.48089809283299456,0,FALSE,FALSE,0.7370461020955107,5.79004997372515
PKO,COPPER CREEK,950-010400-00000-00000-0000-0000-000-000-000-000-000-000,2,PKO-9,1969,101137.743640124,147.078,4.990963058298735,75000,11.225243392518447,12678.3484062803,82122.9326450953,0.16904464541707068,-1.7775924248813808,0.4325,0.459,0.054,0.17571,0.071569,CWH,0.09673401232408343,0,FALSE,FALSE,0.7370461020955107,5.441334300842428
PKO,COPPER CREEK,950-010400-00000-00000-0000-0000-000-000-000-000-000-000,2,PKO-9,1971,1118920.67873485,147.078,4.990963058298735,12500,9.433483923290392,30167.047582457,12678.3484062803,2.4133638065965597,0.8810215446925682,0.4322,0.4587,0.054,0.17571,0.071569,CWH,-0.34080392906905344,0,FALSE,FALSE,0.7370461020955107,5.437386576243756
PKO,COPPER CREEK,950-010400-00000-00000-0000-0000-000-000-000-000-000-000,2,PKO-9,1973,2424721.33398111,147.078,4.990963058298735,30000,10.308952660644293,11803.0508702935,30167.047582457,0.39343502900978333,-0.9328393352784382,0.4019,0.4266,0.054,0.17571,0.071569,CWH,-0.20355231452664888,0,FALSE,FALSE,0.7370461020955107,5.014980044185816
PKO,COPPER CREEK,950-010400-00000-00000-0000-0000-000-000-000-000-000-000,2,PKO-9,1975,328460.6660909,147.078,4.990963058298735,10000,9.210340371976184,6070.17361809818,11803.0508702935,0.607017361809818,-0.49919788567959783,0.3737,0.3966,0.054,0.17571,0.071569,CWH,1.2286162579398736,0,FALSE,FALSE,0.7370461020955107,4.620207584318584
PKO,COPPER CREEK,950-010400-00000-00000-0000-0000-000-000-000-000-000-000,2,PKO-9,1977,562698.670381299,147.078,4.990963058298735,5000,8.517193191416238,10000,6070.17361809818,2,0.6931471805599453,0.3264,0.3464,0.054,0.17571,0.071569,CWH,0.9724829797884954,0,FALSE,FALSE,0.7370461020955107,3.9596216681407483
PKO,COPPER CREEK,950-010400-00000-00000-0000-0000-000-000-000-000-000-000,2,PKO-9,1979,0,147.078,4.990963058298735,10000,9.210340371976184,2034.37662564811,10000,0.203437662564811,-1.5923956474898673,0.2819,0.2992,0.054,0.17571,0.071569,CWH,-1.19975713829789,0,FALSE,FALSE,0.7370461020955107,3.3385129979496364
PKO,COPPER CREEK,950-010400-00000-00000-0000-0000-000-000-000-000-000-000,2,PKO-9,1981,4404110.72577704,147.078,4.990963058298735,2000,7.600902459542082,2500,2034.37662564811,1.25,0.22314355131420976,0.2899,0.3077,0.054,0.17571,0.071569,CWH,-0.22613906119882837,0,FALSE,FALSE,0.7370461020955107,3.450365194912018
PKO,COPPER CREEK,950-010400-00000-00000-0000-0000-000-000-000-000-000-000,2,PKO-9,1983,3655060.62417176,147.078,4.990963058298735,2500,7.824046010856292,13266.4025107473,2500,5.306561004298921,1.6689439802996924,0.2952,0.3133,0.054,0.17571,0.071569,CWH,0.10267616261581472,0,FALSE,FALSE,0.7370461020955107,3.5240560540872354
PKO,COPPER CREEK,950-010400-00000-00000-0000-0000-000-000-000-000-000-000,2,PKO-9,1985,2527390.20190878,147.078,4.990963058298735,10000,9.210340371976184,22585.9499290169,13266.4025107473,2.25859499290169,0.8147429354014468,0.3155,0.3348,0.054,0.17571,0.071569,CWH,-0.9758993397997916,0,FALSE,FALSE,0.7370461020955107,3.806976316992085
PKO,COPPER CREEK,950-010400-00000-00000-0000-0000-000-000-000-000-000-000,2,PKO-9,1987,3300349.33067699,147.078,4.990963058298735,22500,10.021270588192511,16040.279305705,22585.9499290169,0.7129013024757778,-0.33841229384973404,0.321,0.3407,0.054,0.17571,0.071569,CWH,0.8862048812919091,0,FALSE,FALSE,0.7370461020955107,3.8846149007659743
PKO,COPPER CREEK,950-010400-00000-00000-0000-0000-000-000-000-000-000-000,2,PKO-9,1989,538154.042356429,147.078,4.990963058298735,15000,9.615805480084347,10044.9679060262,16040.279305705,0.6696645270684134,-0.4009783978602073,0.3087,0.3276,0.054,0.17571,0.071569,CWH,0.15947767939610902,0,FALSE,FALSE,0.7370461020955107,3.7122309266239495
PKO,COPPER CREEK,950-010400-00000-00000-0000-0000-000-000-000-000-000-000,2,PKO-9,1991,970189.874707977,147.078,4.990963058298735,10000,9.210340371976184,8047.90908204679,10044.9679060262,0.804790908204679,-0.21717277666285043,0.3049,0.3236,0.054,0.17571,0.071569,CWH,-0.18487911555035336,0,FALSE,FALSE,0.7370461020955107,3.6595945986416516
PKO,COPPER CREEK,950-010400-00000-00000-0000-0000-000-000-000-000-000-000,2,PKO-9,1993,0,147.078,4.990963058298735,8000,8.987196820661973,301.219817967522,8047.90908204679,0.037652477245940244,-3.2793565301958227,0.2869,0.3045,0.054,0.17571,0.071569,CWH,-1.7567819796155162,0,FALSE,FALSE,0.7370461020955107,3.4082561325261804
PKO,COPPER CREEK,950-010400-00000-00000-0000-0000-000-000-000-000-000-000,2,PKO-9,1995,575060.546236635,147.078,4.990963058298735,300,5.703782474656201,2060.54864073323,301.219817967522,6.8684954691107665,1.9269450821207907,0.2529,0.2684,0.054,0.17571,0.071569,CWH,-0.5672147431639023,0,FALSE,FALSE,0.7370461020955107,2.9332132724859448
PKO,COPPER CREEK,950-010400-00000-00000-0000-0000-000-000-000-000-000-000,2,PKO-9,1997,62198.0473299645,147.078,4.990963058298735,2000,7.600902459542082,1500,2060.54864073323,0.75,-0.2876820724517809,0.2228,0.2364,0.054,0.17571,0.071569,CWH,0.8907774948170872,0,FALSE,FALSE,0.7370461020955107,2.512122648627563
PKO,COPPER CREEK,950-010400-00000-00000-0000-0000-000-000-000-000-000-000,2,PKO-9,1999,356744.874618448,147.078,4.990963058298735,1500,7.313220387090301,1200,1500,0.8,-0.2231435513142097,0.1996,0.2119,0.054,0.17571,0.071569,CWH,1.6302835492491898,0,FALSE,FALSE,0.7370461020955107,2.18972513973599
PKO,COPPER CREEK,950-010400-00000-00000-0000-0000-000-000-000-000-000-000,2,PKO-9,2005,546838.713848092,147.078,4.990963058298735,70000,11.156250521031495,30000,70000,0.42857142857142855,-0.8472978603872037,0.1371,0.1455,0.054,0.17571,0.071569,CWH,-0.8145696192436794,0,FALSE,FALSE,0.7370461020955107,1.3159620952298485
PKO,COPPER CREEK,950-010400-00000-00000-0000-0000-000-000-000-000-000-000,2,PKO-9,2007,483.009818419622,147.078,4.990963058298735,30000,10.308952660644293,25000,30000,0.8333333333333334,-0.1823215567939546,0.1143,0.1214,0.054,0.17571,0.071569,CWH,0.8768892458318005,0,FALSE,FALSE,0.7370461020955107,0.9988282191365049
PKO,COPPER CREEK,950-010400-00000-00000-0000-0000-000-000-000-000-000-000,2,PKO-9,2009,4101.564360583,147.078,4.990963058298735,25000,10.126631103850338,50000,25000,2,0.6931471805599453,0.0934,0.0991,0.054,0.17571,0.071569,CWH,1.604652193542091,0,FALSE,FALSE,0.7370461020955107,0.7053806906351955
PKO,PALLANT CREEK,950-065000-00000-00000-0000-0000-000-000-000-000-000-000,2,PKO-9,1955,497466.082787577,82.619,4.414239678288494,200,5.298317366548036,9639.99560361115,333.482344916924,48.19997801805575,3.875358564999516,0.1069,0.1178,0.078,0.17922,0.125673,CWH,-0.07106879047729574,0,FALSE,FALSE,0.3328756413177914,0.951455523952437
PKO,PALLANT CREEK,950-065000-00000-00000-0000-0000-000-000-000-000-000-000,2,PKO-9,1957,1204038.68450417,82.619,4.414239678288494,3500,8.160518247477505,3570.99496154343,9639.99560361115,1.0202842747266943,0.02008128917879593,0.109,0.1201,0.078,0.17922,0.125673,CWH,-0.3276691034772351,0,FALSE,FALSE,0.3328756413177914,0.9817214125422582
PKO,PALLANT CREEK,950-065000-00000-00000-0000-0000-000-000-000-000-000-000,2,PKO-9,1959,782787.953846384,82.619,4.414239678288494,3500,8.160518247477505,4455.2170687981,3570.99496154343,1.2729191625137428,0.24131281599866372,0.1168,0.1287,0.078,0.17922,0.125673,CWH,0.7824977620566573,0,FALSE,FALSE,0.3328756413177914,1.0948895177041984
PKO,PALLANT CREEK,950-065000-00000-00000-0000-0000-000-000-000-000-000-000,2,PKO-9,1961,130832.286548921,82.619,4.414239678288494,3500,8.160518247477505,15000.4527676662,4455.2170687981,4.2858436479046285,1.4553174166623788,0.1563,0.1723,0.078,0.17922,0.125673,CWH,0.00583928468743269,0,FALSE,FALSE,0.3328756413177914,1.668625492711243
PKO,PALLANT CREEK,950-065000-00000-00000-0000-0000-000-000-000-000-000-000,2,PKO-9,1963,2424267.79775965,82.619,4.414239678288494,15000,9.615805480084347,4015.69788104202,15000.4527676662,0.26771319206946803,-1.31783905036681,0.1902,0.2096,0.078,0.17922,0.125673,CWH,0.5797944041154652,0,FALSE,FALSE,0.3328756413177914,2.1594592511461688
PKO,PALLANT CREEK,950-065000-00000-00000-0000-0000-000-000-000-000-000-000,2,PKO-9,1965,1091972.52083518,82.619,4.414239678288494,4000,8.294049640102028,3594.7386948444,4015.69788104202,0.8986846737111001,-0.10682305830644566,0.2217,0.2443,0.078,0.17922,0.125673,CWH,-0.7093794641235007,0,FALSE,FALSE,0.3328756413177914,2.616079396392601
PKO,PALLANT CREEK,950-065000-00000-00000-0000-0000-000-000-000-000-000-000,2,PKO-9,1967,4877251.17207364,82.619,4.414239678288494,3500,8.160518247477505,38324.0352343778,3594.7386948444,10.949724352679372,2.3933142826743676,0.2879,0.3173,0.078,0.17922,0.125673,CWH,-0.48089809283299456,0,FALSE,FALSE,0.3328756413177914,3.5766923820695333
PKO,PALLANT CREEK,950-065000-00000-00000-0000-0000-000-000-000-000-000-000,2,PKO-9,1969,2726318.12184441,82.619,4.414239678288494,35000,10.46310334047155,8114.14298001938,38324.0352343778,0.2318326565719823,-1.4617394754629052,0.3225,0.3554,0.078,0.17922,0.125673,CWH,0.09673401232408343,0,FALSE,FALSE,0.3328756413177914,4.078053406100918
PKO,PALLANT CREEK,950-065000-00000-00000-0000-0000-000-000-000-000-000-000,2,PKO-9,1971,38600.5183350275,82.619,4.414239678288494,8000,8.987196820661973,1508.35237912285,8114.14298001938,0.18854404739035624,-1.6684236262330032,0.3409,0.3757,0.078,0.17922,0.125673,CWH,-0.34080392906905344,0,FALSE,FALSE,0.3328756413177914,4.345182770611078
PKO,PALLANT CREEK,950-065000-00000-00000-0000-0000-000-000-000-000-000-000,2,PKO-9,1973,119532.506918869,82.619,4.414239678288494,1500,7.313220387090301,4131.06780460274,1508.35237912285,2.754045203068493,1.0130708137768787,0.3452,0.3804,0.078,0.17922,0.125673,CWH,-0.20355231452664888,0,FALSE,FALSE,0.3328756413177914,4.407030455990279
PKO,PALLANT CREEK,950-065000-00000-00000-0000-0000-000-000-000-000-000-000,2,PKO-9,1975,10.7996449615457,82.619,4.414239678288494,3500,8.160518247477505,485.613889447854,4131.06780460274,0.1387468255565297,-1.9751044054891767,0.3326,0.3665,0.078,0.17922,0.125673,CWH,1.2286162579398736,0,FALSE,FALSE,0.3328756413177914,4.224119216251794
PKO,PALLANT CREEK,950-065000-00000-00000-0000-0000-000-000-000-000-000-000,2,PKO-9,1977,50832.976990379,82.619,4.414239678288494,400,5.991464547107982,3000,485.613889447854,7.5,2.0149030205422647,0.3185,0.351,0.078,0.17922,0.125673,CWH,0.9724829797884954,0,FALSE,FALSE,0.3328756413177914,4.020153445320391
PKO,PALLANT CREEK,950-065000-00000-00000-0000-0000-000-000-000-000-000-000,2,PKO-9,1979,0,82.619,4.414239678288494,3000,8.006367567650246,3611.0185105254,3000,1.2036728368418,0.18537757976344918,0.2868,0.316,0.078,0.17922,0.125673,CWH,-1.19975713829789,0,FALSE,FALSE,0.3328756413177914,3.5595855754752863
PKO,PALLANT CREEK,950-065000-00000-00000-0000-0000-000-000-000-000-000-000,2,PKO-9,1981,0,82.619,4.414239678288494,3550,8.174702882469461,7700,3611.0185105254,2.1690140845070425,0.7742727253723138,0.2441,0.269,0.078,0.17922,0.125673,CWH,-0.22613906119882837,0,FALSE,FALSE,0.3328756413177914,2.9411087216832894
PKO,PALLANT CREEK,950-065000-00000-00000-0000-0000-000-000-000-000-000-000,2,PKO-9,1983,0,82.619,4.414239678288494,7700,8.948975607841776,5704.55307962135,7700,0.7408510493014739,-0.29995568698031805,0.2412,0.2657,0.078,0.17922,0.125673,CWH,0.10267616261581472,0,FALSE,FALSE,0.3328756413177914,2.8976837510978934
PKO,PALLANT CREEK,950-065000-00000-00000-0000-0000-000-000-000-000-000-000,2,PKO-9,1985,0,82.619,4.414239678288494,4300,8.366370301681654,5521.00998264857,5704.55307962135,1.2839558099182722,0.24994578872402556,0.2155,0.2375,0.078,0.17922,0.125673,CWH,-0.9758993397997916,0,FALSE,FALSE,0.3328756413177914,2.526597638822695
PKO,PALLANT CREEK,950-065000-00000-00000-0000-0000-000-000-000-000-000-000,2,PKO-9,1987,36027.7176086128,82.619,4.414239678288494,5500,8.612503371220562,1283.2223444564,5521.00998264857,0.23331315353752727,-1.4553737211860402,0.1825,0.2012,0.078,0.17922,0.125673,CWH,0.8862048812919091,0,FALSE,FALSE,0.3328756413177914,2.0489229623833434
PKO,PALLANT CREEK,950-065000-00000-00000-0000-0000-000-000-000-000-000-000,2,PKO-9,1989,0,82.619,4.414239678288494,1200,7.090076835776092,340.524412014288,1283.2223444564,0.28377034334524,-1.259590018147685,0.1371,0.1511,0.078,0.17922,0.125673,CWH,0.15947767939610902,0,FALSE,FALSE,0.3328756413177914,1.3896529544050655
PKO,PALLANT CREEK,950-065000-00000-00000-0000-0000-000-000-000-000-000-000,2,PKO-9,1991,0,82.619,4.414239678288494,339,5.82600010738045,76.4551362794445,340.524412014288,0.2255313754555885,-1.48929599244276,0.0998,0.11,0.078,0.17922,0.125673,CWH,-0.18487911555035336,0,FALSE,FALSE,0.3328756413177914,0.8488146843869566
PKO,PALLANT CREEK,950-065000-00000-00000-0000-0000-000-000-000-000-000-000,2,PKO-9,1993,0,82.619,4.414239678288494,76,4.330733340286331,41.1667084555614,76.4551362794445,0.5416672165205447,-0.6131034577720723,0.0947,0.1044,0.078,0.17922,0.125673,CWH,-1.7567819796155162,0,FALSE,FALSE,0.3328756413177914,0.7751238252117401
PKO,PALLANT CREEK,950-065000-00000-00000-0000-0000-000-000-000-000-000-000,2,PKO-9,1995,0,82.619,4.414239678288494,41,3.713572066704308,19.5752120869657,41.1667084555614,0.47744419724306586,-0.7393079903029571,0.0937,0.1033,0.078,0.17922,0.125673,CWH,-0.5672147431639023,0,FALSE,FALSE,0.3328756413177914,0.7606488350166082
PKO,PALLANT CREEK,950-065000-00000-00000-0000-0000-000-000-000-000-000-000,2,PKO-9,1997,223828.142167734,82.619,4.414239678288494,19,2.9444389791664403,450,19.5752120869657,23.68421052631579,3.1648086035979253,0.0927,0.1022,0.078,0.17922,0.125673,CWH,0.8907774948170872,0,FALSE,FALSE,0.3328756413177914,0.7461738448214762
PKO,PALLANT CREEK,950-065000-00000-00000-0000-0000-000-000-000-000-000-000,2,PKO-9,1999,0,82.619,4.414239678288494,450,6.1092475827643655,31,450,0.06888888888888889,-2.6752603782792193,0.0866,0.0955,0.078,0.17922,0.125673,CWH,1.6302835492491898,0,FALSE,FALSE,0.3328756413177914,0.6580079954511276
PKO,PALLANT CREEK,950-065000-00000-00000-0000-0000-000-000-000-000-000-000,2,PKO-9,2001,0,82.619,4.414239678288494,31,3.4339872044851463,153,31,4.935483870967742,1.5964507169072892,0.0759,0.0836,0.078,0.17922,0.125673,CWH,1.9190067210816288,0,FALSE,FALSE,0.3328756413177914,0.501414919703792