Species,River,WATERSHED_CDE,DFO,CU,BroodYear,hararea_m2_3005,area_km2,ln_area_km2,Spawners,logS,Recruits,Returns,recruitPerSpawner,ln_RS,ECA_age_proxy,ECA_age_proxy_forested_only,lake_cover_pct,var_eaubc_KFACTOR,var_eaubc_MELTONS_R,vri_bec_zone,npgo,portion_reporting_vri_cover1_missing,hatchery_enhancement,year_of_enhacement,ln_area_km2_std,ECA_age_proxy_forested_only_std
PKO,KISAMEET RIVER,915-226500-10000-00000-0000-0000-000-000-000-000-000-000,8,PKO-12,1979,0,37.042,3.61205240400061,6000,8.699514748210191,12416.4388153572,9082.09546768773,2.0694064692262,0.7272618363200015,0.0151,0.0188,0.143,0.22067,0.140372,CWH,-1.19975713829789,0,FALSE,FALSE,-0.22930097838713415,-0.3512935936094301
PKO,KISAMEET RIVER,915-226500-10000-00000-0000-0000-000-000-000-000-000-000,8,PKO-12,1981,0,37.042,3.61205240400061,6000,8.699514748210191,2264.35578471078,12416.4388153572,0.37739263078512997,-0.974469172509843,0.013,0.0162,0.143,0.22067,0.140372,CWH,-0.22613906119882837,0,FALSE,FALSE,-0.22930097838713415,-0.3855072067979236
PKO,KISAMEET RIVER,915-226500-10000-00000-0000-0000-000-000-000-000-000-000,8,PKO-12,1983,0,37.042,3.61205240400061,1500,7.313220387090301,968.937452708686,2264.35578471078,0.6459583018057907,-0.43702032557111525,0.013,0.0162,0.143,0.22067,0.140372,CWH,0.10267616261581472,0,FALSE,FALSE,-0.22930097838713415,-0.3855072067979236
PKO,SAGAR CREEK,915-226500-24900-00000-0000-0000-000-000-000-000-000-000,8,PKO-12,1955,0,32.628,3.485170815438334,200,5.298317366548036,797.180852820808,408.252730142673,3.98590426410404,1.3827642034650454,0.0063,0.0074,0.113,-0.491,0.152377,CWH,-0.07106879047729574,0,FALSE,FALSE,-0.3182201931977311,-0.5013071283589785
PKO,SAGAR CREEK,915-226500-24900-00000-0000-0000-000-000-000-000-000-000,8,PKO-12,1957,0,32.628,3.485170815438334,400,5.991464547107982,595.80250107523,797.180852820808,1.489506252688075,0.39844469100601093,0.0092,0.0109,0.113,-0.491,0.152377,CWH,-0.3276691034772351,0,FALSE,FALSE,-0.3182201931977311,-0.455250341374468
PKO,SAGAR CREEK,915-226500-24900-00000-0000-0000-000-000-000-000-000-000,8,PKO-12,1959,0,32.628,3.485170815438334,400,5.991464547107982,3441.00487637877,595.80250107523,8.602512190946925,2.152054275828503,0.0092,0.0109,0.113,-0.491,0.152377,CWH,0.7824977620566573,0,FALSE,FALSE,-0.3182201931977311,-0.455250341374468
PKO,SAGAR CREEK,915-226500-24900-00000-0000-0000-000-000-000-000-000-000,8,PKO-12,1961,0,32.628,3.485170815438334,1500,7.313220387090301,721.843007111491,3441.00487637877,0.4812286714076607,-0.7314127135151787,0.0092,0.0109,0.113,-0.491,0.152377,CWH,0.00583928468743269,0,FALSE,FALSE,-0.3182201931977311,-0.455250341374468
PKO,SAGAR CREEK,915-226500-24900-00000-0000-0000-000-000-000-000-000-000,8,PKO-12,1971,0,32.628,3.485170815438334,400,5.991464547107982,2845.86077547077,557.541924884253,7.114651938676925,1.9621563109744478,0.0172,0.0203,0.113,-0.491,0.152377,CWH,-0.34080392906905344,0,FALSE,FALSE,-0.3182201931977311,-0.3315549706160685
PKO,SAGAR CREEK,915-226500-24900-00000-0000-0000-000-000-000-000-000-000,8,PKO-12,1977,0,32.628,3.485170815438334,3000,8.006367567650246,7568.41288973977,5873.57755142781,2.5228042965799236,0.925371098905609,0.0138,0.0163,0.113,-0.491,0.152377,CWH,0.9724829797884954,0,FALSE,FALSE,-0.3182201931977311,-0.38419129859836615
PKO,SAGAR CREEK,915-226500-24900-00000-0000-0000-000-000-000-000-000-000,8,PKO-12,1979,0,32.628,3.485170815438334,5000,8.517193191416238,3104.10970383929,7568.41288973977,0.620821940767858,-0.47671096800593765,0.0138,0.0163,0.113,-0.491,0.152377,CWH,-1.19975713829789,0,FALSE,FALSE,-0.3182201931977311,-0.38419129859836615
PKO,SAGAR CREEK,915-226500-24900-00000-0000-0000-000-000-000-000-000-000,8,PKO-12,1981,0,32.628,3.485170815438334,1500,7.313220387090301,754.785261570259,3104.10970383929,0.5031901743801727,-0.6867871000580634,0.0138,0.0163,0.113,-0.491,0.152377,CWH,-0.22613906119882837,0,FALSE,FALSE,-0.3182201931977311,-0.38419129859836615
PKO,SAGAR CREEK,915-226500-24900-00000-0000-0000-000-000-000-000-000-000,8,PKO-12,1983,0,32.628,3.485170815438334,500,6.214608098422191,80.7447877257238,754.785261570259,0.1614895754514476,-1.8233146866910064,0.0138,0.0163,0.113,-0.491,0.152377,CWH,0.10267616261581472,0,FALSE,FALSE,-0.3182201931977311,-0.38419129859836615
PKO,SAGAR CREEK,915-226500-24900-00000-0000-0000-000-000-000-000-000-000,8,PKO-12,1989,0,32.628,3.485170815438334,100,4.605170185988092,212.765153466143,119.233934988047,2.12765153466143,0.7550188055617655,0.0066,0.0078,0.113,-0.491,0.152377,CWH,0.15947767939610902,0,FALSE,FALSE,-0.3182201931977311,-0.49604349556074867
PKO,SAGAR CREEK,915-226500-24900-00000-0000-0000-000-000-000-000-000-000,8,PKO-12,1991,30370.5673914745,32.628,3.485170815438334,150,5.0106352940962555,43.7920543856676,212.765153466143,0.291947029237784,-1.2311828998899623,0.0075,0.0088,0.113,-0.491,0.152377,CWH,-0.18487911555035336,0,FALSE,FALSE,-0.3182201931977311,-0.48288441356517425
PKO,SAGAR CREEK,915-226500-24900-00000-0000-0000-000-000-000-000-000-000,8,PKO-12,1993,0,32.628,3.485170815438334,35,3.5553480614894135,118.802285680418,43.7920543856676,3.394351019440514,1.2221125849882077,0.0075,0.0088,0.113,-0.491,0.152377,CWH,-1.7567819796155162,0,FALSE,FALSE,-0.3182201931977311,-0.48288441356517425
PKO,SAGAR CREEK,915-226500-24900-00000-0000-0000-000-000-000-000-000-000,8,PKO-12,1999,0,32.628,3.485170815438334,500,6.214608098422191,894.962656660336,565.521142102339,1.789925313320672,0.5821738945803174,0.0051,0.006,0.113,-0.491,0.152377,CWH,1.6302835492491898,0,FALSE,FALSE,-0.3182201931977311,-0.5197298431527827
PKO,EVANS INLET CREEK #3,915-226500-27600-00000-0000-0000-000-000-000-000-000-000,8,PKO-12,1955,0,9.904,2.29293871594224,400,5.991464547107982,6975.33246218207,816.505460285347,17.438331155455174,2.858670723274623,0.0127,0.0142,0.053,-1.67698,0.278143,CWH,-0.07106879047729574,0,FALSE,FALSE,-1.1537420633164126,-0.41182537078907244
PKO,EVANS INLET CREEK #3,915-226500-27600-00000-0000-0000-000-000-000-000-000-000,8,PKO-12,1957,0,9.904,2.29293871594224,3500,8.160518247477505,5213.27188440826,6975.33246218207,1.4895062526880742,0.3984446910060105,0.0128,0.0143,0.053,-1.67698,0.278143,CWH,-0.3276691034772351,0,FALSE,FALSE,-1.1537420633164126,-0.410509462589515
PKO,EVANS INLET CREEK #3,915-226500-27600-00000-0000-0000-000-000-000-000-000-000,8,PKO-12,1959,0,9.904,2.29293871594224,3500,8.160518247477505,3441.00487637877,5213.27188440826,0.9831442503939343,-0.016999424541020103,0.0128,0.0143,0.053,-1.67698,0.278143,CWH,0.7824977620566573,0,FALSE,FALSE,-1.1537420633164126,-0.410509462589515
PKO,EVANS INLET CREEK #3,915-226500-27600-00000-0000-0000-000-000-000-000-000-000,8,PKO-12,1961,0,9.904,2.29293871594224,1500,7.313220387090301,1353.45563833405,3441.00487637877,0.9023037588893666,-0.1028040540928013,0.0128,0.0143,0.053,-1.67698,0.278143,CWH,0.00583928468743269,0,FALSE,FALSE,-1.1537420633164126,-0.410509462589515
PKO,EVANS INLET CREEK #3,915-226500-27600-00000-0000-0000-000-000-000-000-000-000,8,PKO-12,1971,0,9.904,2.29293871594224,50,3.912023005428146,2845.86077547077,69.6927406105316,56.9172155094154,4.0415978526542835,0.0078,0.0087,0.053,-1.67698,0.278143,CWH,-0.34080392906905344,0,FALSE,FALSE,-1.1537420633164126,-0.4842003217647317
PKO,EVANS INLET CREEK #3,915-226500-27600-00000-0000-0000-000-000-000-000-000-000,8,PKO-12,1977,0,9.904,2.29293871594224,1200,7.090076835776092,2119.15560912714,2349.43102057112,1.76596300760595,0.5686961549668786,0.0031,0.0034,0.053,-1.67698,0.278143,CWH,0.9724829797884954,0,FALSE,FALSE,-1.1537420633164126,-0.5539434563412762
PKO,EVANS INLET CREEK #3,915-226500-27600-00000-0000-0000-000-000-000-000-000-000,8,PKO-12,1983,0,9.904,2.29293871594224,2200,7.696212639346407,1614.89575451448,3321.05515090914,0.734043524779309,-0.3091869540612285,0.0031,0.0034,0.053,-1.67698,0.278143,CWH,0.10267616261581472,0,FALSE,FALSE,-1.1537420633164126,-0.5539434563412762
PKO,EVANS INLET CREEK #3,915-226500-27600-00000-0000-0000-000-000-000-000-000-000,8,PKO-12,1985,0,9.904,2.29293871594224,1000,6.907755278982137,36.2568929066812,1614.89575451448,0.0362568929066812,-3.317125766607685,0.0031,0.0034,0.053,-1.67698,0.278143,CWH,-0.9758993397997916,0,FALSE,FALSE,-1.1537420633164126,-0.5539434563412762
PKO,EVANS INLET CREEK #3,915-226500-27600-00000-0000-0000-000-000-000-000-000-000,8,PKO-12,1987,0,9.904,2.29293871594224,20,2.995732273553991,1550.04115484462,36.2568929066812,77.502057742231,4.350304487519474,0.0019,0.0021,0.053,-1.67698,0.278143,CWH,0.8862048812919091,0,FALSE,FALSE,-1.1537420633164126,-0.5710502629355229
PKO,EVANS INLET CREEK #3,915-226500-27600-00000-0000-0000-000-000-000-000-000-000,8,PKO-12,1989,0,9.904,2.29293871594224,1300,7.170119543449628,212.765153466143,1550.04115484462,0.16366550266626384,-1.8099305518997713,0.0019,0.0021,0.053,-1.67698,0.278143,CWH,0.15947767939610902,0,FALSE,FALSE,-1.1537420633164126,-0.5710502629355229
PKO,EVANS INLET CREEK #3,915-226500-27600-00000-0000-0000-000-000-000-000-000-000,8,PKO-12,1991,0,9.904,2.29293871594224,150,5.0106352940962555,625.600776938109,212.765153466143,4.17067184625406,1.4280771370428165,0.0019,0.0021,0.053,-1.67698,0.278143,CWH,-0.18487911555035336,0,FALSE,FALSE,-1.1537420633164126,-0.5710502629355229
PKO,EVANS INLET CREEK #3,915-226500-27600-00000-0000-0000-000-000-000-000-000-000,8,PKO-12,1993,0,9.904,2.29293871594224,500,6.214608098422191,89.1017142603137,625.600776938109,0.1782034285206274,-1.724829524396349,0.0019,0.0021,0.053,-1.67698,0.278143,CWH,-1.7567819796155162,0,FALSE,FALSE,-1.1537420633164126,-0.5710502629355229
PKO,EVANS INLET CREEK #3,915-226500-27600-00000-0000-0000-000-000-000-000-000-000,8,PKO-12,2013,0,9.904,2.29293871594224,4000,8.294049640102028,627.239380728658,4835.7587550841,0.1568098451821645,-1.8527213848853636,0,0,0.053,-1.67698,0.278143,CWH,-0.5528640906240193,0,FALSE,FALSE,-1.1537420633164126,-0.5986843351262291
PKO,HOOK NOSE CREEK,915-226500-31800-00000-0000-0000-000-000-000-000-000-000,8,PKO-12,1955,0,15.126,2.716415117433838,1319,7.1846291527173145,4649.55732407736,2692.42675529093,3.525062414008613,1.259898142209215,0.0028,0.0035,0.064,0.21214,0.266891,CWH,-0.07106879047729574,0,FALSE,FALSE,-0.8569678067979581,-0.5526275481417187
PKO,HOOK NOSE CREEK,915-226500-31800-00000-0000-0000-000-000-000-000-000-000,8,PKO-12,1957,0,15.126,2.716415117433838,2333,7.75491027202143,2010.8334411289,4649.55732407736,0.8619088903252893,-0.1486057095829445,0.0028,0.0035,0.064,0.21214,0.266891,CWH,-0.3276691034772351,0,FALSE,FALSE,-0.8569678067979581,-0.5526275481417187
PKO,HOOK NOSE CREEK,915-226500-31800-00000-0000-0000-000-000-000-000-000-000,8,PKO-12,1959,0,15.126,2.716415117433838,1350,7.2078598714324755,812.077150825389,2010.8334411289,0.6015386302410289,-0.508264522452518,0.0014,0.0017,0.064,0.21214,0.266891,CWH,0.7824977620566573,0,FALSE,FALSE,-0.8569678067979581,-0.5763138957337526
PKO,HOOK NOSE CREEK,915-226500-31800-00000-0000-0000-000-000-000-000-000-000,8,PKO-12,1961,0,15.126,2.716415117433838,354,5.869296913133774,360.921503555745,812.077150825389,1.019552269931483,0.019363579881401548,0.0014,0.0017,0.064,0.21214,0.266891,CWH,0.00583928468743269,0,FALSE,FALSE,-0.8569678067979581,-0.5763138957337526
PKO,HOOK NOSE CREEK,915-226500-31800-00000-0000-0000-000-000-000-000-000-000,8,PKO-12,1967,0,15.126,2.716415117433838,260,5.560681631015528,358.632285844636,564.396655503509,1.3793549455562923,0.3216159591329923,0.0014,0.0017,0.064,0.21214,0.266891,CWH,-0.48089809283299456,0,FALSE,FALSE,-0.8569678067979581,-0.5763138957337526
PKO,HOOK NOSE CREEK,915-226500-31800-00000-0000-0000-000-000-000-000-000-000,8,PKO-12,1969,0,15.126,2.716415117433838,200,5.298317366548036,4181.56443663189,358.632285844636,20.90782218315945,3.040123356087107,3e-4,3e-4,0.064,0.21214,0.266891,CWH,0.09673401232408343,0,FALSE,FALSE,-0.8569678067979581,-0.5947366105275568
PKO,HOOK NOSE CREEK,915-226500-31800-00000-0000-0000-000-000-000-000-000-000,8,PKO-12,1971,0,15.126,2.716415117433838,3000,8.006367567650246,6640.34180943179,4181.56443663189,2.213447269810597,0.7945511508193857,3e-4,3e-4,0.064,0.21214,0.266891,CWH,-0.34080392906905344,0,FALSE,FALSE,-0.8569678067979581,-0.5947366105275568
PKO,HOOK NOSE CREEK,915-226500-31800-00000-0000-0000-000-000-000-000-000-000,8,PKO-12,1973,0,15.126,2.716415117433838,3500,8.160518247477505,13802.7142835199,6640.34180943179,3.943632652434257,1.3721022915389842,3e-4,3e-4,0.064,0.21214,0.266891,CWH,-0.20355231452664888,0,FALSE,FALSE,-0.8569678067979581,-0.5947366105275568
PKO,HOOK NOSE CREEK,915-226500-31800-00000-0000-0000-000-000-000-000-000-000,8,PKO-12,1975,0,15.126,2.716415117433838,9000,9.104979856318357,39157.1836761854,13802.7142835199,4.350798186242822,1.4703593193584656,3e-4,3e-4,0.064,0.21214,0.266891,CWH,1.2286162579398736,0,FALSE,FALSE,-0.8569678067979581,-0.5947366105275568
PKO,HOOK NOSE CREEK,915-226500-31800-00000-0000-0000-000-000-000-000-000-000,8,PKO-12,1977,0,15.126,2.716415117433838,20000,9.903487552536127,7568.41288973977,39157.1836761854,0.37842064448698853,-0.9717488859802723,3e-4,3e-4,0.064,0.21214,0.266891,CWH,0.9724829797884954,0,FALSE,FALSE,-0.8569678067979581,-0.5947366105275568
PKO,HOOK NOSE CREEK,915-226500-31800-00000-0000-0000-000-000-000-000-000-000,8,PKO-12,1979,0,15.126,2.716415117433838,5000,8.517193191416238,62082.1940767859,7568.41288973977,12.41643881535718,2.519021305548055,0,0,0.064,0.21214,0.266891,CWH,-1.19975713829789,0,FALSE,FALSE,-0.8569678067979581,-0.5986843351262291
PKO,HOOK NOSE CREEK,915-226500-31800-00000-0000-0000-000-000-000-000-000-000,8,PKO-12,1981,0,15.126,2.716415117433838,30000,10.308952660644293,3019.14104628103,62082.1940767859,0.10063803487603433,-2.2962250124921657,0,0,0.064,0.21214,0.266891,CWH,-0.22613906119882837,0,FALSE,FALSE,-0.8569678067979581,-0.5986843351262291
PKO,HOOK NOSE CREEK,915-226500-31800-00000-0000-0000-000-000-000-000-000-000,8,PKO-12,1983,0,15.126,2.716415117433838,2000,7.600902459542082,1291.91660361158,3019.14104628103,0.6459583018057901,-0.4370203255711163,0,0,0.064,0.21214,0.266891,CWH,0.10267616261581472,0,FALSE,FALSE,-0.8569678067979581,-0.5986843351262291
PKO,HOOK NOSE CREEK,915-226500-31800-00000-0000-0000-000-000-000-000-000-000,8,PKO-12,1985,0,15.126,2.716415117433838,800,6.684611727667927,90.6422322667029,1291.91660361158,0.11330279033337863,-2.1776914834193213,0,0,0.064,0.21214,0.266891,CWH,-0.9758993397997916,0,FALSE,FALSE,-0.8569678067979581,-0.5986843351262291
PKO,HOOK NOSE CREEK,915-226500-31800-00000-0000-0000-000-000-000-000-000-000,8,PKO-12,1987,0,15.126,2.716415117433838,50,3.912023005428146,417.318772458166,90.6422322667029,8.34637544916332,2.121827366679148,0,0,0.064,0.21214,0.266891,CWH,0.8862048812919091,0,FALSE,FALSE,-0.8569678067979581,-0.5986843351262291
PKO,HOOK NOSE CREEK,915-226500-31800-00000-0000-0000-000-000-000-000-000-000,8,PKO-12,1989,0,15.126,2.716415117433838,350,5.857933154483459,2836.86871288191,417.318772458166,8.1053391796626,2.0925230025122254,0,0,0.064,0.21214,0.266891,CWH,0.15947767939610902,0,FALSE,FALSE,-0.8569678067979581,-0.5986843351262291
PKO,HOOK NOSE CREEK,915-226500-31800-00000-0000-0000-000-000-000-000-000-000,8,PKO-12,1991,0,15.126,2.716415117433838,2000,7.600902459542082,1251.20155387622,2836.86871288191,0.62560077693811,-0.46904284784306327,0,0,0.064,0.21214,0.266891,CWH,-0.18487911555035336,0,FALSE,FALSE,-0.8569678067979581,-0.5986843351262291
PKO,HOOK NOSE CREEK,915-226500-31800-00000-0000-0000-000-000-000-000-000-000,8,PKO-12,1993,0,15.126,2.716415117433838,1000,6.907755278982137,1188.02285680418,1251.20155387622,1.18802285680418,0.1722904604895301,0,0,0.064,0.21214,0.266891,CWH,-1.7567819796155162,0,FALSE,FALSE,-0.8569678067979581,-0.5986843351262291
PKO,HOOK NOSE CREEK,915-226500-31800-00000-0000-0000-000-000-000-000-000-000,8,PKO-12,1995,0,15.126,2.716415117433838,1000,6.907755278982137,6862.90158453062,1188.02285680418,6.86290158453062,1.9261303238164837,0,0,0.064,0.21214,0.266891,CWH,-0.5672147431639023,0,FALSE,FALSE,-0.8569678067979581,-0.5986843351262291
PKO,HOOK NOSE CREEK,915-226500-31800-00000-0000-0000-000-000-000-000-000-000,8,PKO-12,1997,0,15.126,2.716415117433838,6000,8.699514748210191,5315.89873576199,6862.90158453062,0.8859831226269983,-0.12105737751221625,0,0,0.064,0.21214,0.266891,CWH,0.8907774948170872,0,FALSE,FALSE,-0.8569678067979581,-0.5986843351262291
PKO,HOOK NOSE CREEK,915-226500-31800-00000-0000-0000-000-000-000-000-000-000,8,PKO-12,1999,0,15.126,2.716415117433838,4700,8.45531778769815,6648.29402090536,5315.89873576199,1.4145306427458213,0.34679777483047425,0,0,0.064,0.21214,0.266891,CWH,1.6302835492491898,0,FALSE,FALSE,-0.8569678067979581,-0.5986843351262291
PKO,HOOK NOSE CREEK,915-226500-31800-00000-0000-0000-000-000-000-000-000-000,8,PKO-12,2011,0,15.126,2.716415117433838,11000,9.305650551780507,11001.3511678163,12537.4621791924,1.0001228334378454,1.2282589443634906e-4,0,0,0.064,0.21214,0.266891,CWH,0.7408851700104637,0,FALSE,FALSE,-0.8569678067979581,-0.5986843351262291
PKO,HOOK NOSE CREEK,915-226500-31800-00000-0000-0000-000-000-000-000-000-000,8,PKO-12,2013,0,15.126,2.716415117433838,9100,9.116029692504942,1026.39171391962,11001.3511678163,0.11279029823292529,-2.1822249521904853,0,0,0.064,0.21214,0.266891,CWH,-0.5528640906240193,0,FALSE,FALSE,-0.8569678067979581,-0.5986843351262291
PKO,KADJUSDIS RIVER,915-230500-47800-00000-0000-0000-000-000-000-000-000-000,7,PKO-12,1955,0,33.546,3.5129176312725634,2200,7.696212639346407,2989.42819807803,4490.78003156941,1.3588309991263774,0.30662477064899435,0.0086,0.0122,0.112,0.2329,0.126273,CWH,-0.07106879047729574,0,FALSE,FALSE,-0.2987750939880616,-0.4381435347802212
PKO,KADJUSDIS RIVER,915-230500-47800-00000-0000-0000-000-000-000-000-000-000,7,PKO-12,1957,0,33.546,3.5129176312725634,1500,7.313220387090301,893.703751612845,2989.42819807803,0.59580250107523,-0.517846040868144,0.008,0.0113,0.112,0.2329,0.126273,CWH,-0.3276691034772351,0,FALSE,FALSE,-0.2987750939880616,-0.4499867085762383
PKO,KADJUSDIS RIVER,915-230500-47800-00000-0000-0000-000-000-000-000-000-000,7,PKO-12,1959,0,33.546,3.5129176312725634,600,6.396929655216146,2294.00325091918,893.703751612845,3.823338751531967,1.3411240596121743,0.0013,0.0019,0.112,0.2329,0.126273,CWH,0.7824977620566573,0,FALSE,FALSE,-0.2987750939880616,-0.5736820793346378
PKO,KADJUSDIS RIVER,915-230500-47800-00000-0000-0000-000-000-000-000-000-000,7,PKO-12,1961,0,33.546,3.5129176312725634,1000,6.907755278982137,2706.91127666809,2294.00325091918,2.70691127666809,0.9958082345753048,0.0013,0.0019,0.112,0.2329,0.126273,CWH,0.00583928468743269,0,FALSE,FALSE,-0.2987750939880616,-0.5736820793346378
PKO,KADJUSDIS RIVER,915-230500-47800-00000-0000-0000-000-000-000-000-000-000,7,PKO-12,1963,0,33.546,3.5129176312725634,1500,7.313220387090301,605.071293227007,2706.91127666809,0.403380862151338,-0.907874095957413,0.0013,0.0019,0.112,0.2329,0.126273,CWH,0.5797944041154652,0,FALSE,FALSE,-0.2987750939880616,-0.5736820793346378
PKO,KADJUSDIS RIVER,915-230500-47800-00000-0000-0000-000-000-000-000-000-000,7,PKO-12,1965,0,33.546,3.5129176312725634,250,5.521460917862246,1085.37818366059,605.071293227007,4.341512734642359,1.4682228437498612,0.0013,0.0019,0.112,0.2329,0.126273,CWH,-0.7093794641235007,0,FALSE,FALSE,-0.2987750939880616,-0.5736820793346378
PKO,KADJUSDIS RIVER,915-230500-47800-00000-0000-0000-000-000-000-000-000-000,7,PKO-12,1967,0,33.546,3.5129176312725634,500,6.214608098422191,8965.80714611589,1085.37818366059,17.93161429223178,2.886565316594528,0.0013,0.0019,0.112,0.2329,0.126273,CWH,-0.48089809283299456,0,FALSE,FALSE,-0.2987750939880616,-0.5736820793346378
PKO,KADJUSDIS RIVER,915-230500-47800-00000-0000-0000-000-000-000-000-000-000,7,PKO-12,1969,0,33.546,3.5129176312725634,5000,8.517193191416238,6969.27406105316,8965.80714611589,1.393854812210632,0.332073154984898,0.0012,0.0017,0.112,0.2329,0.126273,CWH,0.09673401232408343,0,FALSE,FALSE,-0.2987750939880616,-0.5763138957337526