Species,River,WATERSHED_CDE,DFO,CU,BroodYear,hararea_m2_3005,area_km2,ln_area_km2,Spawners,logS,Recruits,Returns,recruitPerSpawner,ln_RS,ECA_age_proxy,ECA_age_proxy_forested_only,lake_cover_pct,var_eaubc_KFACTOR,var_eaubc_MELTONS_R,vri_bec_zone,npgo,portion_reporting_vri_cover1_missing,hatchery_enhancement,year_of_enhacement,ln_area_km2_std,ECA_age_proxy_forested_only_std
PKO,FISHTRAP BAY CREEK,915-567300-78100-00000-0000-0000-000-000-000-000-000-000,6,PKO-13,1985,0,4.579,1.5214806336749584,2000,7.600902459542082,3086.29578687231,3639.55028100768,1.543147893436155,0.4338244167698535,0,0,0,0.21897,0.299279,CWH,-0.9758993397997916,0,FALSE,FALSE,-1.694383520534821,-0.5986843351262291
PKO,FISHTRAP BAY CREEK,915-567300-78100-00000-0000-0000-000-000-000-000-000-000,6,PKO-13,1987,0,4.579,1.5214806336749584,1500,7.313220387090301,2224.00946093625,3086.29578687231,1.4826729739575,0.39384652228922123,0,0,0,0.21897,0.299279,CWH,0.8862048812919091,0,FALSE,FALSE,-1.694383520534821,-0.5986843351262291
PKO,FISHTRAP BAY CREEK,915-567300-78100-00000-0000-0000-000-000-000-000-000-000,6,PKO-13,1989,0,4.579,1.5214806336749584,2000,7.600902459542082,658.84769588324,2224.00946093625,0.32942384794162,-1.1104100657365068,0,0,0,0.21897,0.299279,CWH,0.15947767939610902,0,FALSE,FALSE,-1.694383520534821,-0.5986843351262291
PKO,FISHTRAP BAY CREEK,915-567300-78100-00000-0000-0000-000-000-000-000-000-000,6,PKO-13,1991,0,4.579,1.5214806336749584,500,6.214608098422191,321.019462620311,658.84769588324,0.642038925240622,-0.44310634591425163,0,0,0,0.21897,0.299279,CWH,-0.18487911555035336,0,FALSE,FALSE,-1.694383520534821,-0.5986843351262291
PKO,FISHTRAP BAY CREEK,915-567300-78100-00000-0000-0000-000-000-000-000-000-000,6,PKO-13,1999,0,4.579,1.5214806336749584,1200,7.090076835776092,545.88106689676,1312.09697670267,0.4549008890806333,-0.7876757099551686,0,0,0,0.21897,0.299279,CWH,1.6302835492491898,0,FALSE,FALSE,-1.694383520534821,-0.5986843351262291
PKO,FISHTRAP BAY CREEK,915-567300-78100-00000-0000-0000-000-000-000-000-000-000,6,PKO-13,2001,0,4.579,1.5214806336749584,400,5.991464547107982,2065.66296378678,545.88106689676,5.16415740946695,1.6417419546009557,0,0,0,0.21897,0.299279,CWH,1.9190067210816288,0,FALSE,FALSE,-1.694383520534821,-0.5986843351262291
PKO,FISHTRAP BAY CREEK,915-567300-78100-00000-0000-0000-000-000-000-000-000-000,6,PKO-13,2003,0,4.579,1.5214806336749584,1400,7.24422751560335,2089.04634349511,2065.66296378678,1.4921759596393642,0.40023543024285824,0,0,0,0.21897,0.299279,CWH,0.41101277747559006,0,FALSE,FALSE,-1.694383520534821,-0.5986843351262291
PKO,FISHTRAP BAY CREEK,915-567300-78100-00000-0000-0000-000-000-000-000-000-000,6,PKO-13,2005,0,4.579,1.5214806336749584,1400,7.24422751560335,435.824956355337,2089.04634349511,0.31130354025381213,-1.166986829116709,0,0,0,0.21897,0.299279,CWH,-0.8145696192436794,0,FALSE,FALSE,-1.694383520534821,-0.5986843351262291
PKO,FISHTRAP BAY CREEK,915-567300-78100-00000-0000-0000-000-000-000-000-000-000,6,PKO-13,2013,0,4.579,1.5214806336749584,500,6.214608098422191,22.4214261300556,653.853524586047,0.0448428522601112,-3.1045910730752495,0,0,0,0.21897,0.299279,CWH,-0.5528640906240193,0,FALSE,FALSE,-1.694383520534821,-0.5986843351262291
PKO,LITTLE TILLHORN CREEK,915-567300-16200-00000-0000-0000-000-000-000-000-000-000,6,PKO-13,1959,0,15.059,2.7119758191046826,25,3.2188758248682006,393.866089432806,34.3828294086374,15.75464357731224,2.757135152123267,0,0,0.011,0.21999,0.097283,CWH,0.7824977620566573,0,FALSE,FALSE,-0.8600788879738115,-0.5986843351262291
PKO,LITTLE TILLHORN CREEK,915-567300-16200-00000-0000-0000-000-000-000-000-000-000,6,PKO-13,1961,0,15.059,2.7119758191046826,200,5.298317366548036,392.455258790678,393.866089432806,1.96227629395339,0.6741051738348119,0,0,0.011,0.21999,0.097283,CWH,0.00583928468743269,0,FALSE,FALSE,-0.8600788879738115,-0.5986843351262291
PKO,LITTLE TILLHORN CREEK,915-567300-16200-00000-0000-0000-000-000-000-000-000-000,6,PKO-13,1979,0,15.059,2.7119758191046826,300,5.703782474656201,87.6625590387611,504.711084297269,0.29220853012920367,-1.2302875873154455,0,0,0.011,0.21999,0.097283,CWH,-1.19975713829789,0,FALSE,FALSE,-0.8600788879738115,-0.5986843351262291
PKO,LITTLE TILLHORN CREEK,915-567300-16200-00000-0000-0000-000-000-000-000-000-000,6,PKO-13,1981,0,15.059,2.7119758191046826,30,3.4011973816621555,283.597106859192,87.6625590387611,9.4532368953064,2.2463572114599732,0,0,0.011,0.21999,0.097283,CWH,-0.22613906119882837,0,FALSE,FALSE,-0.8600788879738115,-0.5986843351262291
PKO,LITTLE TILLHORN CREEK,915-567300-16200-00000-0000-0000-000-000-000-000-000-000,6,PKO-13,1983,0,15.059,2.7119758191046826,165,5.10594547390058,545.932542151151,283.597106859192,3.308682073643339,1.1965499450377803,0,0,0.011,0.21999,0.097283,CWH,0.10267616261581472,0,FALSE,FALSE,-0.8600788879738115,-0.5986843351262291
PKO,LITTLE TILLHORN CREEK,915-567300-16200-00000-0000-0000-000-000-000-000-000-000,6,PKO-13,1985,0,15.059,2.7119758191046826,300,5.703782474656201,102.876526229077,545.932542151151,0.3429217540969233,-1.0702529800064207,0,0,0.011,0.21999,0.097283,CWH,-0.9758993397997916,0,FALSE,FALSE,-0.8600788879738115,-0.5986843351262291
PKO,LITTLE TILLHORN CREEK,915-567300-16200-00000-0000-0000-000-000-000-000-000-000,6,PKO-13,1995,0,15.059,2.7119758191046826,2100,7.649692623711514,29.4401149131059,2387.45840541544,0.014019102339574239,-4.267334426560023,0,0,0.011,0.21999,0.097283,CWH,-0.5672147431639023,0,FALSE,FALSE,-0.8600788879738115,-0.5986843351262291
PKO,LITTLE TILLHORN CREEK,915-567300-16200-00000-0000-0000-000-000-000-000-000-000,6,PKO-13,1997,0,15.059,2.7119758191046826,25,3.2188758248682006,1530.77980615311,29.4401149131059,61.2311922461244,4.114656736901215,0,0,0.011,0.21999,0.097283,CWH,0.8907774948170872,0,FALSE,FALSE,-0.8600788879738115,-0.5986843351262291
PKO,LITTLE TILLHORN CREEK,915-567300-16200-00000-0000-0000-000-000-000-000-000-000,6,PKO-13,1999,0,15.059,2.7119758191046826,1400,7.24422751560335,341.175666810475,1530.77980615311,0.24369690486462497,-1.4118300190281625,0,0,0.011,0.21999,0.097283,CWH,1.6302835492491898,0,FALSE,FALSE,-0.8600788879738115,-0.5986843351262291
PKO,LITTLE TILLHORN CREEK,915-567300-16200-00000-0000-0000-000-000-000-000-000-000,6,PKO-13,2001,0,15.059,2.7119758191046826,250,5.521460917862246,442.642063668596,341.175666810475,1.770568254674384,0.5713005428995431,0,0,0.011,0.21999,0.097283,CWH,1.9190067210816288,0,FALSE,FALSE,-0.8600788879738115,-0.5986843351262291