Species,River,WATERSHED_CDE,DFO,CU,BroodYear,hararea_m2_3005,area_km2,ln_area_km2,Spawners,logS,Recruits,Returns,recruitPerSpawner,ln_RS,ECA_age_proxy,ECA_age_proxy_forested_only,lake_cover_pct,var_eaubc_KFACTOR,var_eaubc_MELTONS_R,vri_bec_zone,npgo,portion_reporting_vri_cover1_missing,hatchery_enhancement,year_of_enhacement,ln_area_km2_std,ECA_age_proxy_forested_only_std
PKO,ENGLISHMAN RIVER,920-462800-00000-00000-0000-0000-000-000-000-000-000-000,14,PKO-3,1969,768356.62018433,315.872,5.755337068235478,25,3.2188758248682006,40.98360655737705,37.3134328358209,1.639344262295082,0.49429632181478017,0.107,0.1126,0.009,0.12847,0.172044,CWH,0.09673401232408343,0,TRUE,FALSE,1.2727230080623886,0.8830282975754503
PKO,ENGLISHMAN RIVER,920-462800-00000-00000-0000-0000-000-000-000-000-000-000,14,PKO-3,1971,0,315.872,5.755337068235478,25,3.2188758248682006,45.45454545454545,40.98360655737705,1.8181818181818181,0.5978370007556204,0.0989,0.104,0.009,0.12847,0.172044,CWH,-0.34080392906905344,0,TRUE,FALSE,1.2727230080623886,0.7698601924135101
PKO,ENGLISHMAN RIVER,920-462800-00000-00000-0000-0000-000-000-000-000-000-000,14,PKO-3,1973,0,315.872,5.755337068235478,25,3.2188758248682006,107.14285714285715,45.45454545454545,4.2857142857142865,1.4552872326068422,0.3597,0.3783,0.009,0.12847,0.172044,CWH,-0.20355231452664888,0,TRUE,FALSE,1.2727230080623886,4.379396383799572
PKO,ENGLISHMAN RIVER,920-462800-00000-00000-0000-0000-000-000-000-000-000-000,14,PKO-3,1975,0,315.872,5.755337068235478,75,4.31748811353631,60.975609756097555,107.14285714285715,0.8130081300813007,-0.2070141693843263,0.366,0.3849,0.009,0.12847,0.172044,CWH,1.2286162579398736,0,TRUE,FALSE,1.2727230080623886,4.4662463249703634
PKO,ENGLISHMAN RIVER,920-462800-00000-00000-0000-0000-000-000-000-000-000-000,14,PKO-3,1995,0,315.872,5.755337068235478,50,3.912023005428146,227.2727272727273,138.88888888888889,4.545454545454546,1.5141277326297755,0.2461,0.2588,0.009,0.12847,0.172044,CWH,-0.5672147431639023,0,TRUE,FALSE,1.2727230080623886,2.8068860853284296
PKO,ENGLISHMAN RIVER,920-462800-00000-00000-0000-0000-000-000-000-000-000-000,14,PKO-3,1997,0,315.872,5.755337068235478,100,4.605170185988092,2577.319587628866,227.2727272727273,25.77319587628866,3.2493350323529095,0.2461,0.2588,0.009,0.12847,0.172044,CWH,0.8907774948170872,0,TRUE,FALSE,1.2727230080623886,2.8068860853284296
PKO,ENGLISHMAN RIVER,920-462800-00000-00000-0000-0000-000-000-000-000-000-000,14,PKO-3,1999,87583.2551052166,315.872,5.755337068235478,2500,7.824046010856292,15697.67441860465,2577.319587628866,6.27906976744186,1.8372218433048122,0.2462,0.2589,0.009,0.12847,0.172044,CWH,1.6302835492491898,0,TRUE,FALSE,1.2727230080623886,2.808201993527988
PKO,FRAZER CREEK,900-471200-00800-00000-0000-0000-000-000-000-000-000-000,13,PKO-7,1959,49005.3954046619,20.093,3.000371495702416,750,6.620073206530356,1000,1785.7142857142856,1.3333333333333333,0.28768207245178085,0.049,0.0634,0.019,0.1354,0.315716,CWH,0.7824977620566573,0.0111949464419617,FALSE,FALSE,-0.6579698396207898,0.23560146339318885
PKO,FRAZER CREEK,900-471200-00800-00000-0000-0000-000-000-000-000-000-000,13,PKO-7,1961,0,20.093,3.000371495702416,400,5.991464547107982,3061.2244897959185,1000,7.653061224489797,2.035105727859784,0.049,0.0634,0.019,0.1354,0.315716,CWH,0.00583928468743269,0.0111949464419617,FALSE,FALSE,-0.6579698396207898,0.23560146339318885
PKO,FRAZER CREEK,900-471200-00800-00000-0000-0000-000-000-000-000-000-000,13,PKO-7,1963,0,20.093,3.000371495702416,1500,7.313220387090301,5645.1612903225805,3061.2244897959185,3.7634408602150535,1.3253336613302034,0.0943,0.1221,0.019,0.1354,0.315716,CWH,0.5797944041154652,0.0111949464419617,FALSE,FALSE,-0.6579698396207898,1.0080395765334071
PKO,FRAZER CREEK,900-471200-00800-00000-0000-0000-000-000-000-000-000-000,13,PKO-7,1965,0,20.093,3.000371495702416,3500,8.160518247477505,10294.117647058823,5645.1612903225805,2.941176470588235,1.0788096613719298,0.0943,0.1221,0.019,0.1354,0.315716,CWH,-0.7093794641235007,0.0111949464419617,FALSE,FALSE,-0.6579698396207898,1.0080395765334071
PKO,FRAZER CREEK,900-471200-00800-00000-0000-0000-000-000-000-000-000-000,13,PKO-7,1967,891420.796142176,20.093,3.000371495702416,3500,8.160518247477505,1119.402985074627,10294.117647058823,0.31982942430703626,-1.1399674743500237,0.1383,0.179,0.019,0.1354,0.315716,CWH,-0.48089809283299456,0.0111949464419617,FALSE,FALSE,-0.6579698396207898,1.7567913420815915
PKO,FRAZER CREEK,900-471200-00800-00000-0000-0000-000-000-000-000-000-000,13,PKO-7,1969,0,20.093,3.000371495702416,750,6.620073206530356,5737.704918032787,1119.402985074627,7.6502732240437155,2.034741362761929,0.1326,0.1716,0.019,0.1354,0.315716,CWH,0.09673401232408343,0.0111949464419617,FALSE,FALSE,-0.6579698396207898,1.6594141353143408
PKO,FRAZER CREEK,900-471200-00800-00000-0000-0000-000-000-000-000-000-000,13,PKO-7,1971,0,20.093,3.000371495702416,3500,8.160518247477505,13636.363636363636,5737.704918032787,3.896103896103896,1.3599770528025172,0.1319,0.1707,0.019,0.1354,0.315716,CWH,-0.34080392906905344,0.0111949464419617,FALSE,FALSE,-0.6579698396207898,1.6475709615183238
PKO,FRAZER CREEK,900-471200-00800-00000-0000-0000-000-000-000-000-000-000,13,PKO-7,1973,0,20.093,3.000371495702416,7500,8.922658299524402,5000,13636.363636363636,0.6666666666666666,-0.40546510810816444,0.1492,0.1931,0.019,0.1354,0.315716,CWH,-0.20355231452664888,0.0111949464419617,FALSE,FALSE,-0.6579698396207898,1.9423343982191907
PKO,FRAZER CREEK,900-471200-00800-00000-0000-0000-000-000-000-000-000-000,13,PKO-7,1975,0,20.093,3.000371495702416,3500,8.160518247477505,182.92682926829264,5000,0.052264808362369325,-2.9514320146574113,0.1633,0.2114,0.019,0.1354,0.315716,CWH,1.2286162579398736,0.0111949464419617,FALSE,FALSE,-0.6579698396207898,2.1831455987382027
PKO,FRAZER CREEK,900-471200-00800-00000-0000-0000-000-000-000-000-000-000,13,PKO-7,1977,111706.708830467,20.093,3.000371495702416,75,4.31748811353631,4186.0465116279065,182.92682926829264,55.813953488372086,4.022023900642474,0.2105,0.2725,0.019,0.1354,0.315716,CWH,0.9724829797884954,0.0111949464419617,FALSE,FALSE,-0.6579698396207898,2.9871655086678
PKO,FRAZER CREEK,900-471200-00800-00000-0000-0000-000-000-000-000-000-000,13,PKO-7,1979,99615.3780191595,20.093,3.000371495702416,1800,7.495541943884256,344.8275862068965,4186.0465116279065,0.19157088122605362,-1.6524974018945475,0.1979,0.2562,0.019,0.1354,0.315716,CWH,-1.19975713829789,0.0111949464419617,FALSE,FALSE,-0.6579698396207898,2.772672472139936
PKO,FRAZER CREEK,900-471200-00800-00000-0000-0000-000-000-000-000-000-000,13,PKO-7,1981,0,20.093,3.000371495702416,200,5.298317366548036,35087.71929824561,344.8275862068965,175.43859649122805,5.1672891041416324,0.1967,0.2546,0.019,0.1354,0.315716,CWH,-0.22613906119882837,0.0111949464419617,FALSE,FALSE,-0.6579698396207898,2.751617940947017
PKO,FRAZER CREEK,900-471200-00800-00000-0000-0000-000-000-000-000-000-000,13,PKO-7,1983,0,20.093,3.000371495702416,20000,9.903487552536127,2000,35087.71929824561,0.1,-2.3025850929940455,0.1615,0.2091,0.019,0.1354,0.315716,CWH,0.10267616261581472,0.0111949464419617,FALSE,FALSE,-0.6579698396207898,2.1528797101483814
PKO,FRAZER CREEK,900-471200-00800-00000-0000-0000-000-000-000-000-000-000,13,PKO-7,1985,0,20.093,3.000371495702416,1000,6.907755278982137,178.57142857142856,2000,0.17857142857142855,-1.7227665977411037,0.158,0.2045,0.019,0.1354,0.315716,CWH,-0.9758993397997916,0.0111949464419617,FALSE,FALSE,-0.6579698396207898,2.092347932968739
PKO,FRAZER CREEK,900-471200-00800-00000-0000-0000-000-000-000-000-000-000,13,PKO-7,1991,0,20.093,3.000371495702416,200,5.298317366548036,44.44444444444444,384.6153846153846,0.2222222222222222,-1.5040773967762742,0.1213,0.157,0.019,0.1354,0.315716,CWH,-0.18487911555035336,0.0111949464419617,FALSE,FALSE,-0.6579698396207898,1.4672915381789544
PKO,FRAZER CREEK,900-471200-00800-00000-0000-0000-000-000-000-000-000-000,13,PKO-7,2001,42003.0832439964,20.093,3.000371495702416,559,6.326149473155099,55.69620253164557,601.0752688172043,0.09963542492244287,-2.3062375057157682,0.1338,0.1731,0.019,0.1354,0.315716,CWH,1.9190067210816288,0.0111949464419617,FALSE,FALSE,-0.6579698396207898,1.6791527583077026
PKO,FRAZER CREEK,900-471200-00800-00000-0000-0000-000-000-000-000-000-000,13,PKO-7,2007,0,20.093,3.000371495702416,12,2.4849066497880004,757.4468085106383,12.244897959183673,63.12056737588653,4.145046665342063,0.1072,0.1388,0.019,0.1354,0.315716,CWH,0.8768892458318005,0.0111949464419617,FALSE,FALSE,-0.6579698396207898,1.2277962458595
PKO,FRAZER CREEK,900-471200-00800-00000-0000-0000-000-000-000-000-000-000,13,PKO-7,2009,0,20.093,3.000371495702416,712,6.568077911411976,22.058823529411768,757.4468085106383,0.030981493721083945,-3.474365229497781,0.0932,0.1206,0.019,0.1354,0.315716,CWH,1.604652193542091,0.0111949464419617,FALSE,FALSE,-0.6579698396207898,0.9883009535400454
PKO,FRAZER CREEK,900-471200-00800-00000-0000-0000-000-000-000-000-000-000,13,PKO-7,2011,174332.881426259,20.093,3.000371495702416,15,2.70805020110221,400,22.058823529411768,26.666666666666668,3.283414346005772,0.1038,0.1344,0.019,0.1354,0.315716,CWH,0.7408851700104637,0.0111949464419617,FALSE,FALSE,-0.6579698396207898,1.1698962850789725
PKO,GLENDALE CREEK,900-569800-08600-00000-0000-0000-000-000-000-000-000-000,12,PKO-7,1959,0,64.472,4.16623102102221,175000,12.072541252905651,250000,416666.6666666666,1.4285714285714286,0.3566749439387324,0.099,0.1213,0.042,0.1343,0.279752,CWH,0.7824977620566573,0.00737646821935139,FALSE,FALSE,0.15907000631406173,0.9975123109369476
PKO,GLENDALE CREEK,900-569800-08600-00000-0000-0000-000-000-000-000-000-000,12,PKO-7,1961,5747.64350498404,64.472,4.16623102102221,100000,11.512925464970229,204081.63265306124,250000,2.0408163265306123,0.7133498878774648,0.0988,0.1211,0.042,0.1343,0.279752,CWH,0.00583928468743269,0.00737646821935139,FALSE,FALSE,0.15907000631406173,0.9948804945378326
PKO,GLENDALE CREEK,900-569800-08600-00000-0000-0000-000-000-000-000-000-000,12,PKO-7,1963,185166.62889089,64.472,4.16623102102221,100000,11.512925464970229,80645.16129032258,204081.63265306124,0.8064516129032258,-0.21511137961694557,0.1551,0.19,0.042,0.1343,0.279752,CWH,0.5797944041154652,0.00737646821935139,FALSE,FALSE,0.15907000631406173,1.9015412440329102
PKO,GLENDALE CREEK,900-569800-08600-00000-0000-0000-000-000-000-000-000-000,12,PKO-7,1965,28565.7909800067,64.472,4.16623102102221,50000,10.819778284410283,220588.23529411768,80645.16129032258,4.411764705882353,1.4842747694800944,0.1538,0.1884,0.042,0.1343,0.279752,CWH,-0.7093794641235007,0.00737646821935139,FALSE,FALSE,0.15907000631406173,1.8804867128399911
PKO,GLENDALE CREEK,900-569800-08600-00000-0000-0000-000-000-000-000-000-000,12,PKO-7,1967,0,64.472,4.16623102102221,75000,11.225243392518447,74626.8656716418,220588.23529411768,0.9950248756218907,-0.004987541511038939,0.1507,0.1846,0.042,0.1343,0.279752,CWH,-0.48089809283299456,0.00737646821935139,FALSE,FALSE,0.15907000631406173,1.830482201256808
PKO,GLENDALE CREEK,900-569800-08600-00000-0000-0000-000-000-000-000-000-000,12,PKO-7,1969,0,64.472,4.16623102102221,50000,10.819778284410283,245901.6393442623,74626.8656716418,4.918032786885246,1.5929086104828898,0.1391,0.1704,0.042,0.1343,0.279752,CWH,0.09673401232408343,0.00737646821935139,FALSE,FALSE,0.15907000631406173,1.6436232369196515
PKO,GLENDALE CREEK,900-569800-08600-00000-0000-0000-000-000-000-000-000-000,12,PKO-7,1971,0,64.472,4.16623102102221,150000,11.918390573078392,363636.3636363636,245901.6393442623,2.424242424242424,0.8855190732074012,0.1391,0.1704,0.042,0.1343,0.279752,CWH,-0.34080392906905344,0.00737646821935139,FALSE,FALSE,0.15907000631406173,1.6436232369196515
PKO,GLENDALE CREEK,900-569800-08600-00000-0000-0000-000-000-000-000-000-000,12,PKO-7,1973,0,64.472,4.16623102102221,200000,12.206072645530174,214285.7142857143,363636.3636363636,1.0714285714285714,0.06899287148695142,0.1154,0.1413,0.042,0.1343,0.279752,CWH,-0.20355231452664888,0.00737646821935139,FALSE,FALSE,0.15907000631406173,1.260693950848436
PKO,GLENDALE CREEK,900-569800-08600-00000-0000-0000-000-000-000-000-000-000,12,PKO-7,1975,84412.6898941463,64.472,4.16623102102221,150000,11.918390573078392,39024.39024390244,214285.7142857143,0.26016260162601623,-1.346448452572691,0.1156,0.1416,0.042,0.1343,0.279752,CWH,1.2286162579398736,0.00737646821935139,FALSE,FALSE,0.15907000631406173,1.2646416754471084
PKO,GLENDALE CREEK,900-569800-08600-00000-0000-0000-000-000-000-000-000-000,12,PKO-7,1977,302486.176967183,64.472,4.16623102102221,16000,9.680344001221918,48837.20930232557,39024.39024390244,3.0523255813953485,1.1159037857781706,0.1138,0.1394,0.042,0.1343,0.279752,CWH,0.9724829797884954,0.00737646821935139,FALSE,FALSE,0.15907000631406173,1.2356916950568446
PKO,GLENDALE CREEK,900-569800-08600-00000-0000-0000-000-000-000-000-000-000,12,PKO-7,1979,85050.2533820659,64.472,4.16623102102221,21000,9.95227771670556,34482.75862068965,48837.20930232557,1.6420361247947453,0.4959370112722399,0.1032,0.1264,0.042,0.1343,0.279752,CWH,-1.19975713829789,0.00737646821935139,FALSE,FALSE,0.15907000631406173,1.0646236291143774
PKO,GLENDALE CREEK,900-569800-08600-00000-0000-0000-000-000-000-000-000-000,12,PKO-7,1981,367829.164482226,64.472,4.16623102102221,20000,9.903487552536127,526315.7894736842,34482.75862068965,26.31578947368421,3.270169119255751,0.1134,0.139,0.042,0.1343,0.279752,CWH,-0.22613906119882837,0.00737646821935139,FALSE,FALSE,0.15907000631406173,1.230428062258615
PKO,GLENDALE CREEK,900-569800-08600-00000-0000-0000-000-000-000-000-000-000,12,PKO-7,1983,4951.38160166869,64.472,4.16623102102221,300000,12.611537753638338,280000,526315.7894736842,0.9333333333333333,-0.06899287148695143,0.0936,0.1147,0.042,0.1343,0.279752,CWH,0.10267616261581472,0.00737646821935139,FALSE,FALSE,0.15907000631406173,0.9106623697661564
PKO,GLENDALE CREEK,900-569800-08600-00000-0000-0000-000-000-000-000-000-000,12,PKO-7,1985,86262.9104183802,64.472,4.16623102102221,140000,11.84939770159144,10714.285714285714,280000,0.07653061224489796,-2.570064458128307,0.0983,0.1204,0.042,0.1343,0.279752,CWH,-0.9758993397997916,0.00737646821935139,FALSE,FALSE,0.15907000631406173,0.9856691371409304
PKO,GLENDALE CREEK,900-569800-08600-00000-0000-0000-000-000-000-000-000-000,12,PKO-7,1987,782882.546846158,64.472,4.16623102102221,6000,8.699514748210191,31250.000000000004,10714.285714285714,5.208333333333334,1.6502599069543555,0.1095,0.1342,0.042,0.1343,0.279752,CWH,0.8862048812919091,0.00737646821935139,FALSE,FALSE,0.15907000631406173,1.167264468679858
PKO,GLENDALE CREEK,900-569800-08600-00000-0000-0000-000-000-000-000-000-000,12,PKO-7,1989,428746.168349196,64.472,4.16623102102221,10000,9.210340371976184,33653.846153846156,31250.000000000004,3.3653846153846154,1.2135422553420867,0.1341,0.1643,0.042,0.1343,0.279752,CWH,0.15947767939610902,0.00737646821935139,FALSE,FALSE,0.15907000631406173,1.5633528367466476
PKO,GLENDALE CREEK,900-569800-08600-00000-0000-0000-000-000-000-000-000-000,12,PKO-7,1991,286624.51291651,64.472,4.16623102102221,17500,9.769956159911606,370370.37037037034,33653.846153846156,21.16402116402116,3.052302625042385,0.1381,0.1691,0.042,0.1343,0.279752,CWH,-0.18487911555035336,0.00737646821935139,FALSE,FALSE,0.15907000631406173,1.6265164303254047
PKO,GLENDALE CREEK,900-569800-08600-00000-0000-0000-000-000-000-000-000-000,12,PKO-7,1993,199661.765892484,64.472,4.16623102102221,200000,12.206072645530174,148148.14814814815,370370.37037037034,0.7407407407407407,-0.30010459245033816,0.1326,0.1624,0.042,0.1343,0.279752,CWH,-1.7567819796155162,0.00737646821935139,FALSE,FALSE,0.15907000631406173,1.5383505809550562
PKO,GLENDALE CREEK,900-569800-08600-00000-0000-0000-000-000-000-000-000-000,12,PKO-7,1995,44.3140820222907,64.472,4.16623102102221,80000,11.289781913656018,492307.6923076923,148148.14814814815,6.153846153846154,1.817077277212345,0.1304,0.1598,0.042,0.1343,0.279752,CWH,-0.5672147431639023,0.00737646821935139,FALSE,FALSE,0.15907000631406173,1.5041369677665628
PKO,GLENDALE CREEK,900-569800-08600-00000-0000-0000-000-000-000-000-000-000,12,PKO-7,1997,77779.3135768317,64.472,4.16623102102221,320000,12.676076274775909,555555.5555555555,492307.6923076923,1.736111111111111,0.5516476182862458,0.1284,0.1573,0.042,0.1343,0.279752,CWH,0.8907774948170872,0.00737646821935139,FALSE,FALSE,0.15907000631406173,1.4712392627776267
PKO,GLENDALE CREEK,900-569800-08600-00000-0000-0000-000-000-000-000-000-000,12,PKO-7,1999,0,64.472,4.16623102102221,550000,13.217673557208654,1451612.9032258063,555555.5555555555,2.6392961876832843,0.9705122860407939,0.1097,0.1344,0.042,0.1343,0.279752,CWH,1.6302835492491898,0.00737646821935139,FALSE,FALSE,0.15907000631406173,1.1698962850789725
PKO,GLENDALE CREEK,900-569800-08600-00000-0000-0000-000-000-000-000-000-000,12,PKO-7,2001,0,64.472,4.16623102102221,1350000,14.115615150414612,204906.32911392403,1451612.9032258063,0.1517824660103141,-1.885306927870507,0.1053,0.129,0.042,0.1343,0.279752,CWH,1.9190067210816288,0.00737646821935139,FALSE,FALSE,0.15907000631406173,1.0988372423028707
PKO,GLENDALE CREEK,900-569800-08600-00000-0000-0000-000-000-000-000-000-000,12,PKO-7,2003,6529.25372238085,64.472,4.16623102102221,161876,11.994585889023035,235204.2105263158,204906.32911392403,1.4529900079463032,0.3736235077209374,0.1124,0.1376,0.042,0.1343,0.279752,CWH,0.41101277747559006,0.00737646821935139,FALSE,FALSE,0.15907000631406173,1.2120053474648107
PKO,GLENDALE CREEK,900-569800-08600-00000-0000-0000-000-000-000-000-000-000,12,PKO-7,2005,792541.573916908,64.472,4.16623102102221,223444,12.316916102356423,269670.4081632653,235204.2105263158,1.2068814027821975,0.18803967944369793,0.1215,0.1488,0.042,0.1343,0.279752,CWH,-0.8145696192436794,0.00737646821935139,FALSE,FALSE,0.15907000631406173,1.359387065815244
PKO,GLENDALE CREEK,900-569800-08600-00000-0000-0000-000-000-000-000-000-000,12,PKO-7,2007,4684338.60554497,64.472,4.16623102102221,264277,12.484753074482601,520237.2340425532,269670.4081632653,1.968530118181125,0.677287131351222,0.2236,0.2738,0.042,0.1343,0.279752,CWH,0.8768892458318005,0.00737646821935139,FALSE,FALSE,0.15907000631406173,3.004272315262046
PKO,GLENDALE CREEK,900-569800-08600-00000-0000-0000-000-000-000-000-000-000,12,PKO-7,2009,412711.556868994,64.472,4.16623102102221,489023,13.100164802115735,179613.23529411765,520237.2340425532,0.36728995424370153,-1.0016036768063332,0.2139,0.262,0.042,0.1343,0.279752,CWH,1.604652193542091,0.00737646821935139,FALSE,FALSE,0.15907000631406173,2.8489951477142683
PKO,GLENDALE CREEK,900-569800-08600-00000-0000-0000-000-000-000-000-000-000,12,PKO-7,2011,149458.578015016,64.472,4.16623102102221,122137,11.712898644497418,293532.2580645161,179613.23529411765,2.403303323845486,0.8768441759400349,0.2324,0.2847,0.042,0.1343,0.279752,CWH,0.7408851700104637,0.00737646821935139,FALSE,FALSE,0.15907000631406173,3.1477063090138073
PKO,HOEYA SOUND CREEK,900-619100-00000-00000-0000-0000-000-000-000-000-000-000,12,PKO-7,1959,0,35.206,3.5612165226237806,1500,7.313220387090301,1000,3571.428571428571,0.6666666666666666,-0.40546510810816444,0.0301,0.0363,0.021,0.13248,0.258476,CWH,0.7824977620566573,0,FALSE,FALSE,-0.2649270034665228,-0.12100965868687782
PKO,HOEYA SOUND CREEK,900-619100-00000-00000-0000-0000-000-000-000-000-000-000,12,PKO-7,1961,0,35.206,3.5612165226237806,400,5.991464547107982,816.3265306122449,1000,2.0408163265306123,0.7133498878774648,0.0301,0.0363,0.021,0.13248,0.258476,CWH,0.00583928468743269,0,FALSE,FALSE,-0.2649270034665228,-0.12100965868687782
PKO,HOEYA SOUND CREEK,900-619100-00000-00000-0000-0000-000-000-000-000-000-000,12,PKO-7,1963,0,35.206,3.5612165226237806,400,5.991464547107982,40.32258064516129,816.3265306122449,0.10080645161290322,-2.2945529212967815,0.0375,0.0452,0.021,0.13248,0.258476,CWH,0.5797944041154652,0,FALSE,FALSE,-0.2649270034665228,-0.003893828926265547