Species,River,WATERSHED_CDE,DFO,CU,BroodYear,hararea_m2_3005,area_km2,ln_area_km2,Spawners,logS,Recruits,Returns,recruitPerSpawner,ln_RS,ECA_age_proxy,ECA_age_proxy_forested_only,lake_cover_pct,var_eaubc_KFACTOR,var_eaubc_MELTONS_R,vri_bec_zone,npgo,portion_reporting_vri_cover1_missing,hatchery_enhancement,year_of_enhacement,ln_area_km2_std,ECA_age_proxy_forested_only_std
PKO,CRAB RIVER,910-644700-00000-00000-0000-0000-000-000-000-000-000-000,6,PKO-13,1991,732548.636521254,137.55,4.923987487370583,2500,7.824046010856292,2140.12975080207,3294.2384794162,0.8560519003208279,-0.1554242734624724,0.0077,0.0137,0.055,0.23379,0.178483,CWH,-0.18487911555035336,8.16894247546666e-5,FALSE,FALSE,0.6901093065690291,-0.4184049117868597
PKO,CRAB RIVER,910-644700-00000-00000-0000-0000-000-000-000-000-000-000,6,PKO-13,1993,0,137.55,4.923987487370583,2000,7.600902459542082,113.688495495973,2140.12975080207,0.0568442477479865,-2.867440246877907,0.0117,0.0208,0.055,0.23379,0.178483,CWH,-1.7567819796155162,8.16894247546666e-5,FALSE,FALSE,0.6901093065690291,-0.3249754296182813
PKO,CRAB RIVER,910-644700-00000-00000-0000-0000-000-000-000-000-000-000,6,PKO-13,1999,1993.38732806294,137.55,4.923987487370583,500,6.214608098422191,6141.16200258855,546.707073626111,12.2823240051771,2.5081611560491606,0.0114,0.0203,0.055,0.23379,0.178483,CWH,1.6302835492491898,8.16894247546666e-5,FALSE,FALSE,0.6901093065690291,-0.3315549706160685
PKO,CRAB RIVER,910-644700-00000-00000-0000-0000-000-000-000-000-000-000,6,PKO-13,2001,0,137.55,4.923987487370583,4500,8.411832675758411,2213.21031834298,6141.16200258855,0.4918245151873289,-0.7096333025625212,0.011,0.0196,0.055,0.23379,0.178483,CWH,1.9190067210816288,8.16894247546666e-5,FALSE,FALSE,0.6901093065690291,-0.3407663280129706
PKO,CRAB RIVER,910-644700-00000-00000-0000-0000-000-000-000-000-000-000,6,PKO-13,2003,0,137.55,4.923987487370583,1500,7.313220387090301,5222.61585873777,2213.21031834298,3.4817439058251805,1.2475332906300611,0.0087,0.0154,0.055,0.23379,0.178483,CWH,0.41101277747559006,8.16894247546666e-5,FALSE,FALSE,0.6901093065690291,-0.3960344723943831
PKO,CRAB RIVER,910-644700-00000-00000-0000-0000-000-000-000-000-000-000,6,PKO-13,2005,0,137.55,4.923987487370583,3500,8.160518247477505,1245.21416101525,5222.61585873777,0.35577547457578573,-1.033455436492185,0.0087,0.0154,0.055,0.23379,0.178483,CWH,-0.8145696192436794,8.16894247546666e-5,FALSE,FALSE,0.6901093065690291,-0.3960344723943831
PKO,CRAB RIVER,910-644700-00000-00000-0000-0000-000-000-000-000-000-000,6,PKO-13,2007,0,137.55,4.923987487370583,1000,6.907755278982137,5804.51536139322,1245.21416101525,5.80451536139322,1.7586361252552338,0.0087,0.0154,0.055,0.23379,0.178483,CWH,0.8768892458318005,8.16894247546666e-5,FALSE,FALSE,0.6901093065690291,-0.3960344723943831
PKO,CRAB RIVER,910-644700-00000-00000-0000-0000-000-000-000-000-000-000,6,PKO-13,2009,0,137.55,4.923987487370583,4500,8.411832675758411,593.709823953068,5804.51536139322,0.13193551643401513,-2.025441987620083,0.0083,0.0147,0.055,0.23379,0.178483,CWH,1.604652193542091,8.16894247546666e-5,FALSE,FALSE,0.6901093065690291,-0.40524582979128526
PKO,CRAB RIVER,910-644700-00000-00000-0000-0000-000-000-000-000-000-000,6,PKO-13,2011,0,137.55,4.923987487370583,500,6.214608098422191,5557.7549589814,593.709823953068,11.1155099179628,2.4083414229237188,0.0075,0.0134,0.055,0.23379,0.178483,CWH,0.7408851700104637,8.16894247546666e-5,FALSE,FALSE,0.6901093065690291,-0.42235263638553194
PKO,CRAB RIVER,910-644700-00000-00000-0000-0000-000-000-000-000-000-000,6,PKO-13,2013,0,137.55,4.923987487370583,4250,8.354674261918463,168.160695975417,5557.7549589814,0.03956722258245106,-3.2297542160292556,0.0029,0.0051,0.055,0.23379,0.178483,CWH,-0.5528640906240193,8.16894247546666e-5,FALSE,FALSE,0.6901093065690291,-0.5315730169487997
PKO,PIKE CREEK,910-648400-00000-00000-0000-0000-000-000-000-000-000-000,6,PKO-13,1961,0,47.928,3.8696998847816237,15000,9.615805480084347,2943.41444093009,29539.9567074604,0.19622762939533936,-1.6284799191592318,0.0139,0.0162,0,0.23865,0.254495,MH,0.00583928468743269,0,FALSE,FALSE,-0.0487404104704465,-0.3855072067979236
PKO,PIKE CREEK,910-648400-00000-00000-0000-0000-000-000-000-000-000-000,6,PKO-13,1967,0,47.928,3.8696998847816237,400,5.991464547107982,58.4492810034707,581.982453243584,0.14612320250867675,-1.9233051603182458,0.0093,0.0109,0,0.23865,0.254495,MH,-0.48089809283299456,0,FALSE,FALSE,-0.0487404104704465,-0.455250341374468
PKO,PIKE CREEK,910-648400-00000-00000-0000-0000-000-000-000-000-000-000,6,PKO-13,1973,0,47.928,3.8696998847816237,400,5.991464547107982,114.834559171199,691.040317455077,0.2870863979279975,-1.2479720704487396,0.0067,0.0078,0,0.23865,0.254495,MH,-0.20355231452664888,0,FALSE,FALSE,-0.0487404104704465,-0.49604349556074867
PKO,PIKE CREEK,910-648400-00000-00000-0000-0000-000-000-000-000-000-000,6,PKO-13,1975,0,47.928,3.8696998847816237,80,4.382026634673881,172.159773731924,114.834559171199,2.15199717164905,0.7663963280091993,0.0067,0.0078,0,0.23865,0.254495,MH,1.2286162579398736,0,FALSE,FALSE,-0.0487404104704465,-0.49604349556074867
PKO,PIKE CREEK,910-648400-00000-00000-0000-0000-000-000-000-000-000-000,6,PKO-13,1977,64800.4999929648,47.928,3.8696998847816237,100,4.605170185988092,420.592570247724,172.159773731924,4.20592570247724,1.4364944124733308,0.0078,0.0091,0,0.23865,0.254495,MH,0.9724829797884954,0,FALSE,FALSE,-0.0487404104704465,-0.4789366889665019
PKO,PIKE CREEK,910-648400-00000-00000-0000-0000-000-000-000-000-000-000,6,PKO-13,1979,0,47.928,3.8696998847816237,250,5.521460917862246,1607.14691571062,420.592570247724,6.428587662842481,1.8607548660428703,0.0076,0.0089,0,0.23865,0.254495,MH,-1.19975713829789,0,FALSE,FALSE,-0.0487404104704465,-0.48156850536561685
PKO,PIKE CREEK,910-648400-00000-00000-0000-0000-000-000-000-000-000-000,6,PKO-13,1981,0,47.928,3.8696998847816237,550,6.309918278226516,3093.7866202821,1607.14691571062,5.625066582331091,1.7272327848792894,0.0076,0.0089,0,0.23865,0.254495,MH,-0.22613906119882837,0,FALSE,FALSE,-0.0487404104704465,-0.48156850536561685
PKO,PIKE CREEK,910-648400-00000-00000-0000-0000-000-000-000-000-000-000,6,PKO-13,1983,0,47.928,3.8696998847816237,1800,7.495541943884256,12738.4259835269,3093.7866202821,7.076903324181611,1.9568364284353577,0.0076,0.0089,0,0.23865,0.254495,MH,0.10267616261581472,0,FALSE,FALSE,-0.0487404104704465,-0.48156850536561685
PKO,PIKE CREEK,910-648400-00000-00000-0000-0000-000-000-000-000-000-000,6,PKO-13,1985,0,47.928,3.8696998847816237,7000,8.85366542803745,4115.06104916309,12738.4259835269,0.5878658641661556,-0.5312564792737314,0.0076,0.0089,0,0.23865,0.254495,MH,-0.9758993397997916,0,FALSE,FALSE,-0.0487404104704465,-0.48156850536561685
PKO,PIKE CREEK,910-648400-00000-00000-0000-0000-000-000-000-000-000-000,6,PKO-13,1987,0,47.928,3.8696998847816237,2000,7.600902459542082,556.002365234062,4115.06104916309,0.278001182617031,-1.2801299112824511,0.0044,0.0051,0,0.23865,0.254495,MH,0.8862048812919091,0,FALSE,FALSE,-0.0487404104704465,-0.5315730169487997
PKO,PIKE CREEK,910-648400-00000-00000-0000-0000-000-000-000-000-000-000,6,PKO-13,1989,0,47.928,3.8696998847816237,500,6.214608098422191,1976.54308764972,556.002365234062,3.95308617529944,1.3744965840514936,0.0031,0.0036,0,0.23865,0.254495,MH,0.15947767939610902,0,FALSE,FALSE,-0.0487404104704465,-0.5513116399421613
PKO,PIKE CREEK,910-648400-00000-00000-0000-0000-000-000-000-000-000-000,6,PKO-13,1991,0,47.928,3.8696998847816237,1500,7.313220387090301,642.038925240622,1976.54308764972,0.42802595016041467,-0.848571454022416,0.0031,0.0036,0,0.23865,0.254495,MH,-0.18487911555035336,0,FALSE,FALSE,-0.0487404104704465,-0.5513116399421613
PKO,PIKE CREEK,910-648400-00000-00000-0000-0000-000-000-000-000-000-000,6,PKO-13,1993,177.89024197869,47.928,3.8696998847816237,600,6.396929655216146,255.79911486594,642.038925240622,0.4263318581099,-0.8525372263356394,0.0032,0.0037,0,0.23865,0.254495,MH,-1.7567819796155162,0,FALSE,FALSE,-0.0487404104704465,-0.5499957317426037
PKO,PIKE CREEK,910-648400-00000-00000-0000-0000-000-000-000-000-000-000,6,PKO-13,1999,24316.3725437788,47.928,3.8696998847816237,1500,7.313220387090301,3548.22693482894,1640.12122087833,2.3654846232192934,0.8609829156322132,0.0737,0.086,0,0.23865,0.254495,MH,1.6302835492491898,0,FALSE,FALSE,-0.0487404104704465,0.5329967164931706
PKO,WEEWANIE CREEK,910-649000-00000-00000-0000-0000-000-000-000-000-000-000,6,PKO-13,1955,0,129.576,4.8642675815840954,750,6.620073206530356,44.2955210913407,1435.15992521883,0.05906069478845427,-2.8291896386235647,0.0298,0.0398,0.006,0.22592,0.207617,MH,-0.07106879047729574,1.0306688441785e-7,FALSE,FALSE,0.648257315344227,-0.07495287170236734
PKO,WEEWANIE CREEK,910-649000-00000-00000-0000-0000-000-000-000-000-000-000,6,PKO-13,1961,108249.633897534,129.576,4.8642675815840954,7500,8.922658299524402,14717.0722046504,14769.9783537302,1.9622762939533867,0.6741051738348103,0.0198,0.0264,0.006,0.22592,0.207617,MH,0.00583928468743269,1.0306688441785e-7,FALSE,FALSE,0.648257315344227,-0.25128457044306457
PKO,WEEWANIE CREEK,910-649000-00000-00000-0000-0000-000-000-000-000-000-000,6,PKO-13,1963,0,129.576,4.8642675815840954,7500,8.922658299524402,45600.8928144083,14717.0722046504,6.080119041921106,1.8050242750497443,0.0198,0.0264,0.006,0.22592,0.207617,MH,0.5797944041154652,1.0306688441785e-7,FALSE,FALSE,0.648257315344227,-0.25128457044306457
PKO,WEEWANIE CREEK,910-649000-00000-00000-0000-0000-000-000-000-000-000-000,6,PKO-13,1965,97957.7285202394,129.576,4.8642675815840954,15000,9.615805480084347,1091.21709983172,45600.8928144083,0.072747806655448,-2.620756522451034,0.0206,0.0274,0.006,0.22592,0.207617,MH,-0.7093794641235007,1.0306688441785e-7,FALSE,FALSE,0.648257315344227,-0.23812548844749012
PKO,WEEWANIE CREEK,910-649000-00000-00000-0000-0000-000-000-000-000-000-000,6,PKO-13,1971,878903.89809486,129.576,4.8642675815840954,75,4.31748811353631,345.520158727538,97.009397401216,4.606935449700506,1.52756287450344,0.0617,0.0824,0.006,0.22592,0.207617,MH,-0.34080392906905344,1.0306688441785e-7,FALSE,FALSE,0.648257315344227,0.4856240213091028
PKO,WEEWANIE CREEK,910-649000-00000-00000-0000-0000-000-000-000-000-000-000,6,PKO-13,1973,1452083.93409213,129.576,4.8642675815840954,200,5.298317366548036,2870.86397927999,345.520158727538,14.35431989639995,2.6640509349794117,0.0753,0.1006,0.006,0.22592,0.207617,MH,-0.20355231452664888,1.0306688441785e-7,FALSE,FALSE,0.648257315344227,0.7251193136285571
PKO,WEEWANIE CREEK,910-649000-00000-00000-0000-0000-000-000-000-000-000-000,6,PKO-13,1975,422074.566588516,129.576,4.8642675815840954,2000,7.600902459542082,516.479321195773,2870.86397927999,0.2582396605978865,-1.3538672081908898,0.0834,0.1114,0.006,0.22592,0.207617,MH,1.2286162579398736,1.0306688441785e-7,FALSE,FALSE,0.648257315344227,0.8672373991807609
PKO,WEEWANIE CREEK,910-649000-00000-00000-0000-0000-000-000-000-000-000-000,6,PKO-13,1977,0,129.576,4.8642675815840954,300,5.703782474656201,6729.48112396359,516.479321195773,22.4316037465453,3.1104708460450032,0.0822,0.1097,0.006,0.22592,0.207617,MH,0.9724829797884954,1.0306688441785e-7,FALSE,FALSE,0.648257315344227,0.8448669597882843
PKO,WEEWANIE CREEK,910-649000-00000-00000-0000-0000-000-000-000-000-000-000,6,PKO-13,1979,0,129.576,4.8642675815840954,4000,8.294049640102028,17532.5118077522,6729.48112396359,4.383127951938049,1.4777626137867632,0.0785,0.1048,0.006,0.22592,0.207617,MH,-1.19975713829789,1.0306688441785e-7,FALSE,FALSE,0.648257315344227,0.7803874580099698
PKO,WEEWANIE CREEK,910-649000-00000-00000-0000-0000-000-000-000-000-000-000,6,PKO-13,1981,56781.3728025574,129.576,4.8642675815840954,6000,8.699514748210191,3093.7866202821,17532.5118077522,0.51563110338035,-0.662363685104386,0.0735,0.0982,0.006,0.22592,0.207617,MH,-0.22613906119882837,1.0306688441785e-7,FALSE,FALSE,0.648257315344227,0.6935375168391785
PKO,WEEWANIE CREEK,910-649000-00000-00000-0000-0000-000-000-000-000-000-000,6,PKO-13,1983,0,129.576,4.8642675815840954,1800,7.495541943884256,7279.10056201535,3093.7866202821,4.043944756675194,1.397220640499932,0.0707,0.0945,0.006,0.22592,0.207617,MH,0.10267616261581472,1.0306688441785e-7,FALSE,FALSE,0.648257315344227,0.6448489134555533
PKO,WEEWANIE CREEK,910-649000-00000-00000-0000-0000-000-000-000-000-000-000,6,PKO-13,1985,0,129.576,4.8642675815840954,4000,8.294049640102028,10287.6526229077,7279.10056201535,2.571913155726925,0.9446500405358441,0.0667,0.0891,0.006,0.22592,0.207617,MH,-0.9758993397997916,1.0306688441785e-7,FALSE,FALSE,0.648257315344227,0.5737898706794513
PKO,WEEWANIE CREEK,910-649000-00000-00000-0000-0000-000-000-000-000-000-000,6,PKO-13,1987,0,129.576,4.8642675815840954,5000,8.517193191416238,778.403311327686,10287.6526229077,0.1556806622655372,-1.8599484065353944,0.0555,0.0741,0.006,0.22592,0.207617,MH,0.8862048812919091,1.0306688441785e-7,FALSE,FALSE,0.648257315344227,0.3764036407458351
PKO,WEEWANIE CREEK,910-649000-00000-00000-0000-0000-000-000-000-000-000-000,6,PKO-13,1989,0,129.576,4.8642675815840954,700,6.551080335043404,1581.23447011978,778.403311327686,2.2589063858854,0.8148807961160734,0.0488,0.0651,0.006,0.22592,0.207617,MH,0.15947767939610902,1.0306688441785e-7,FALSE,FALSE,0.648257315344227,0.25797190278566545
PKO,WEEWANIE CREEK,910-649000-00000-00000-0000-0000-000-000-000-000-000-000,6,PKO-13,1991,0,129.576,4.8642675815840954,1200,7.090076835776092,1605.09731310155,1581.23447011978,1.3375810942512918,0.2908628291659458,0.038,0.0507,0.006,0.22592,0.207617,MH,-0.18487911555035336,1.0306688441785e-7,FALSE,FALSE,0.648257315344227,0.06848112204939381
PKO,WEEWANIE CREEK,910-649000-00000-00000-0000-0000-000-000-000-000-000-000,6,PKO-13,1993,40312.4039625921,129.576,4.8642675815840954,1500,7.313220387090301,682.13097297584,1605.09731310155,0.45475398198389333,-0.78799870519806825,0.0335,0.0447,0.006,0.22592,0.207617,MH,-1.7567819796155162,1.0306688441785e-7,FALSE,FALSE,0.648257315344227,-0.010473369924052761
PKO,WEEWANIE CREEK,910-649000-00000-00000-0000-0000-000-000-000-000-000-000,6,PKO-13,1995,922196.560622766,129.576,4.8642675815840954,600,6.396929655216146,647.682528088331,682.13097297584,1.0794708801472184,0.07647099529366311,0.0326,0.0435,0.006,0.22592,0.207617,MH,-0.5672147431639023,1.0306688441785e-7,FALSE,FALSE,0.648257315344227,-0.026264268318742057
PKO,WEEWANIE CREEK,910-649000-00000-00000-0000-0000-000-000-000-000-000-000,6,PKO-13,1997,265808.757905472,129.576,4.8642675815840954,550,6.309918278226516,874.731317801778,647.682528088331,1.5904205778214147,0.4639984956074776,0.0372,0.0497,0.006,0.22592,0.207617,MH,0.8907774948170872,1.0306688441785e-7,FALSE,FALSE,0.648257315344227,0.05532204005381938
PKO,WEEWANIE CREEK,910-649000-00000-00000-0000-0000-000-000-000-000-000-000,6,PKO-13,1999,3919.89979343178,129.576,4.8642675815840954,800,6.684611727667927,4094.1080017257,874.731317801778,5.117635002157125,1.6326924186952607,0.0372,0.0497,0.006,0.22592,0.207617,MH,1.6302835492491898,1.0306688441785e-7,FALSE,FALSE,0.648257315344227,0.05532204005381938
PKO,WEEWANIE CREEK,910-649000-00000-00000-0000-0000-000-000-000-000-000-000,6,PKO-13,2001,147077.628379205,129.576,4.8642675815840954,3000,8.006367567650246,26558.5238201157,4094.1080017257,8.8528412733719,2.1807384553336413,0.0384,0.0513,0.006,0.22592,0.207617,MH,1.9190067210816288,1.0306688441785e-7,FALSE,FALSE,0.648257315344227,0.07637657124673841
PKO,WEEWANIE CREEK,910-649000-00000-00000-0000-0000-000-000-000-000-000-000,6,PKO-13,2003,0,129.576,4.8642675815840954,18000,9.798127036878302,20890.4634349511,26558.5238201157,1.1605813019417277,0.14892100196195215,0.038,0.0508,0.006,0.22592,0.207617,MH,0.41101277747559006,1.0306688441785e-7,FALSE,FALSE,0.648257315344227,0.0697970302489512
PKO,WEEWANIE CREEK,910-649000-00000-00000-0000-0000-000-000-000-000-000-000,6,PKO-13,2005,0,129.576,4.8642675815840954,14000,9.546812608597396,2739.47115423355,20890.4634349511,0.19567651101668213,-1.6312924372478057,0.0379,0.0507,0.006,0.22592,0.207617,MH,-0.8145696192436794,1.0306688441785e-7,FALSE,FALSE,0.648257315344227,0.06848112204939381
PKO,WEEWANIE CREEK,910-649000-00000-00000-0000-0000-000-000-000-000-000-000,6,PKO-13,2007,0,129.576,4.8642675815840954,2200,7.696212639346407,28635.6091162065,2739.47115423355,13.016185961912045,2.5661936569929216,0.032,0.0427,0.006,0.22592,0.207617,MH,0.8768892458318005,1.0306688441785e-7,FALSE,FALSE,0.648257315344227,-0.03679153391520153
PKO,WEEWANIE CREEK,910-649000-00000-00000-0000-0000-000-000-000-000-000-000,6,PKO-13,2009,0,129.576,4.8642675815840954,22200,10.00784756786037,1899.87143664982,28635.6091162065,0.08557979444368559,-2.4583060699163606,0.0289,0.0385,0.006,0.22592,0.207617,MH,1.604652193542091,1.0306688441785e-7,FALSE,FALSE,0.648257315344227,-0.0920596782966141
PKO,WEEWANIE CREEK,910-649000-00000-00000-0000-0000-000-000-000-000-000-000,6,PKO-13,2011,0,129.576,4.8642675815840954,1600,7.3777589082278725,43677.415442348,1899.87143664982,27.2983846514675,3.3068275301643686,0.0245,0.0327,0.006,0.22592,0.207617,MH,0.7408851700104637,1.0306688441785e-7,FALSE,FALSE,0.648257315344227,-0.16838235387094572
PKO,WEEWANIE CREEK,910-649000-00000-00000-0000-0000-000-000-000-000-000-000,6,PKO-13,2013,0,129.576,4.8642675815840954,33400,10.416311178964792,420.401739938542,43677.415442348,0.012586878441273713,-4.375100401201431,0.0223,0.0298,0.006,0.22592,0.207617,MH,-0.5528640906240193,1.0306688441785e-7,FALSE,FALSE,0.648257315344227,-0.2065436916581115
PKO,HUGH CREEK,910-650400-00000-00000-0000-0000-000-000-000-000-000-000,6,PKO-13,1961,0,53.254,3.975072919139258,200,5.298317366548036,2943.41444093009,393.866089432806,14.717072204650451,2.6890081943770787,0.0384,0.046,0.001,0.22417,0.213666,CWH,0.00583928468743269,0,FALSE,FALSE,0.025105508259456892,0.0066334366701940135
PKO,HUGH CREEK,910-650400-00000-00000-0000-0000-000-000-000-000-000-000,6,PKO-13,1963,0,53.254,3.975072919139258,1500,7.313220387090301,10640.2083233619,2943.41444093009,7.0934722155746,1.9591749548769992,0.0384,0.046,0.001,0.22417,0.213666,CWH,0.5797944041154652,0,FALSE,FALSE,0.025105508259456892,0.0066334366701940135
PKO,HUGH CREEK,910-650400-00000-00000-0000-0000-000-000-000-000-000-000,6,PKO-13,1965,0,53.254,3.975072919139258,3500,8.160518247477505,290.991226621792,10640.2083233619,0.08314035046336915,-2.4872251298265113,0.0384,0.046,0.001,0.22417,0.213666,CWH,-0.7093794641235007,0,FALSE,FALSE,0.025105508259456892,0.0066334366701940135
PKO,HUGH CREEK,910-650400-00000-00000-0000-0000-000-000-000-000-000-000,6,PKO-13,1967,408826.60694262,53.254,3.975072919139258,200,5.298317366548036,87.6739215052061,290.991226621792,0.4383696075260305,-0.8246928716501355,0.0461,0.0553,0.001,0.22417,0.213666,CWH,-0.48089809283299456,0,FALSE,FALSE,0.025105508259456892,0.12901289922903614
PKO,HUGH CREEK,910-650400-00000-00000-0000-0000-000-000-000-000-000-000,6,PKO-13,1969,0,53.254,3.975072919139258,75,4.31748811353631,970.09397401216,87.6739215052061,12.934586320162133,2.55990483369342,0.0288,0.0345,0.001,0.22417,0.213666,CWH,0.09673401232408343,0,FALSE,FALSE,0.025105508259456892,-0.14469600627891174
PKO,HUGH CREEK,910-650400-00000-00000-0000-0000-000-000-000-000-000-000,6,PKO-13,1971,0,53.254,3.975072919139258,750,6.620073206530356,345.520158727538,970.09397401216,0.46069354497005066,-0.7750222184906057,0.0288,0.0345,0.001,0.22417,0.213666,CWH,-0.34080392906905344,0,FALSE,FALSE,0.025105508259456892,-0.14469600627891174
PKO,HUGH CREEK,910-650400-00000-00000-0000-0000-000-000-000-000-000-000,6,PKO-13,1973,0,53.254,3.975072919139258,200,5.298317366548036,86.1259193783996,345.520158727538,0.430629596891998,-0.8425069623405713,0.0297,0.0356,0.001,0.22417,0.213666,CWH,-0.20355231452664888,0,FALSE,FALSE,0.025105508259456892,-0.13022101608377992
PKO,HUGH CREEK,910-650400-00000-00000-0000-0000-000-000-000-000-000-000,6,PKO-13,1975,0,53.254,3.975072919139258,60,4.0943445622221,258.239660597887,86.1259193783996,4.3039943432981165,1.4595435085691486,0.0297,0.0356,0.001,0.22417,0.213666,CWH,1.2286162579398736,0,FALSE,FALSE,0.025105508259456892,-0.13022101608377992