Species,River,WATERSHED_CDE,DFO,CU,BroodYear,hararea_m2_3005,area_km2,ln_area_km2,Spawners,logS,Recruits,Returns,recruitPerSpawner,ln_RS,ECA_age_proxy,ECA_age_proxy_forested_only,lake_cover_pct,var_eaubc_KFACTOR,var_eaubc_MELTONS_R,vri_bec_zone,npgo,portion_reporting_vri_cover1_missing,hatchery_enhancement,year_of_enhacement,ln_area_km2_std,ECA_age_proxy_forested_only_std
PKO,KILTUISH RIVER,910-593300-00000-00000-0000-0000-000-000-000-000-000-000,6,PKO-13,1985,0,128.288,4.854277736460096,1500,7.313220387090301,2057.53052458154,2729.66271075576,1.3716870163876933,0.31604138111346997,0.0084,0.0223,0.008,0.2376,0.193885,CWH,-0.9758993397997916,2.5281063996289396e-11,FALSE,FALSE,0.6412563848343643,-0.30523680662491964
PKO,KILTUISH RIVER,910-593300-00000-00000-0000-0000-000-000-000-000-000-000,6,PKO-13,1987,0,128.288,4.854277736460096,1000,6.907755278982137,556.002365234062,2057.53052458154,0.556002365234062,-0.5869827307225058,0.0046,0.0123,0.008,0.2376,0.193885,CWH,0.8862048812919091,2.5281063996289396e-11,FALSE,FALSE,0.6412563848343643,-0.4368276265806638
PKO,KILTUISH RIVER,910-593300-00000-00000-0000-0000-000-000-000-000-000-000,6,PKO-13,1989,0,128.288,4.854277736460096,500,6.214608098422191,98.8271543824861,556.002365234062,0.1976543087649722,-1.6212356895024964,0.0046,0.0123,0.008,0.2376,0.193885,CWH,0.15947767939610902,2.5281063996289396e-11,FALSE,FALSE,0.6412563848343643,-0.4368276265806638
PKO,KILTUISH RIVER,910-593300-00000-00000-0000-0000-000-000-000-000-000-000,6,PKO-13,1991,0,128.288,4.854277736460096,75,4.31748811353631,53.5032437700518,98.8271543824861,0.7133765836006907,-0.33774583025642596,0.0046,0.0123,0.008,0.2376,0.193885,CWH,-0.18487911555035336,2.5281063996289396e-11,FALSE,FALSE,0.6412563848343643,-0.4368276265806638
PKO,KILTUISH RIVER,910-593300-00000-00000-0000-0000-000-000-000-000-000-000,6,PKO-13,1993,0,128.288,4.854277736460096,50,3.912023005428146,682.13097297584,53.5032437700518,13.6426194595168,2.613198676464087,0.0042,0.0112,0.008,0.2376,0.193885,CWH,-1.7567819796155162,2.5281063996289396e-11,FALSE,FALSE,0.6412563848343643,-0.45130261677579564
PKO,KILTUISH RIVER,910-593300-00000-00000-0000-0000-000-000-000-000-000-000,6,PKO-13,1995,0,128.288,4.854277736460096,600,6.396929655216146,29.4401149131059,682.13097297584,0.04906685818850984,-3.0145714580646543,0.0042,0.0112,0.008,0.2376,0.193885,CWH,-0.5672147431639023,2.5281063996289396e-11,FALSE,FALSE,0.6412563848343643,-0.45130261677579564
PKO,KILTUISH RIVER,910-593300-00000-00000-0000-0000-000-000-000-000-000-000,6,PKO-13,1997,0,128.288,4.854277736460096,25,3.2188758248682006,656.048488351333,29.4401149131059,26.241939534053323,3.267358876514012,0.0016,0.0042,0.008,0.2376,0.193885,CWH,0.8907774948170872,2.5281063996289396e-11,FALSE,FALSE,0.6412563848343643,-0.5434161907448165
PKO,KILTUISH RIVER,910-593300-00000-00000-0000-0000-000-000-000-000-000-000,6,PKO-13,1999,0,128.288,4.854277736460096,600,6.396929655216146,2729.4053344838,656.048488351333,4.549008890806333,1.5149093830388771,0.0016,0.0042,0.008,0.2376,0.193885,CWH,1.6302835492491898,2.5281063996289396e-11,FALSE,FALSE,0.6412563848343643,-0.5434161907448165
PKO,KILTUISH RIVER,910-593300-00000-00000-0000-0000-000-000-000-000-000-000,6,PKO-13,2001,0,128.288,4.854277736460096,2000,7.600902459542082,6492.08360047274,2729.4053344838,3.24604180023637,1.1774363464698585,0.0016,0.0042,0.008,0.2376,0.193885,CWH,1.9190067210816288,2.5281063996289396e-11,FALSE,FALSE,0.6412563848343643,-0.5434161907448165
PKO,KILTUISH RIVER,910-593300-00000-00000-0000-0000-000-000-000-000-000-000,6,PKO-13,2003,0,128.288,4.854277736460096,4400,8.389359819906353,8953.05575783617,6492.08360047274,2.03478539950822,0.7103903585466959,0.0014,0.0036,0.008,0.2376,0.193885,CWH,0.41101277747559006,2.5281063996289396e-11,FALSE,FALSE,0.6412563848343643,-0.5513116399421613
PKO,KILTUISH RIVER,910-593300-00000-00000-0000-0000-000-000-000-000-000-000,6,PKO-13,2005,0,128.288,4.854277736460096,6000,8.699514748210191,2614.94973813202,8953.05575783617,0.43582495635533663,-0.8305145924954969,0.0014,0.0036,0.008,0.2376,0.193885,CWH,-0.8145696192436794,2.5281063996289396e-11,FALSE,FALSE,0.6412563848343643,-0.5513116399421613
PKO,KILTUISH RIVER,910-593300-00000-00000-0000-0000-000-000-000-000-000-000,6,PKO-13,2007,0,128.288,4.854277736460096,2100,7.649692623711514,8294.00750527964,2614.94973813202,3.9495273834664952,1.3735959219991098,8e-4,0.0021,0.008,0.2376,0.193885,CWH,0.8768892458318005,2.5281063996289396e-11,FALSE,FALSE,0.6412563848343643,-0.5710502629355229
PKO,KILTUISH RIVER,910-593300-00000-00000-0000-0000-000-000-000-000-000-000,6,PKO-13,2009,0,128.288,4.854277736460096,6430,8.768729817231666,949.935718324909,8294.00750527964,0.14773494841755971,-1.912335499847601,8e-4,0.0021,0.008,0.2376,0.193885,CWH,1.604652193542091,2.5281063996289396e-11,FALSE,FALSE,0.6412563848343643,-0.5710502629355229
PKO,KILTUISH RIVER,910-593300-00000-00000-0000-0000-000-000-000-000-000-000,6,PKO-13,2011,0,128.288,4.854277736460096,800,6.684611727667927,9415.49075403908,949.935718324909,11.76936344254885,2.4654998367636676,8e-4,0.0021,0.008,0.2376,0.193885,CWH,0.7408851700104637,2.5281063996289396e-11,FALSE,FALSE,0.6412563848343643,-0.5710502629355229
PKO,KILTUISH RIVER,910-593300-00000-00000-0000-0000-000-000-000-000-000-000,6,PKO-13,2013,0,128.288,4.854277736460096,7200,8.881836305004146,1591.92125523395,9415.49075403908,0.2211001743380486,-1.5091394026158877,8e-4,0.002,0.008,0.2376,0.193885,CWH,-0.5528640906240193,2.5281063996289396e-11,FALSE,FALSE,0.6412563848343643,-0.5723661711350803
PKO,KEMANO RIVER,910-627400-00000-00000-0000-0000-000-000-000-000-000-000,6,PKO-13,1955,454816.89902523,1279.648,7.154340319094229,1500,7.313220387090301,354.364168730726,2870.31985043766,0.23624277915381733,-1.442895277503673,0.0141,0.0362,0.01,0.17417,0.215972,MH,-0.07106879047729574,0.0200262887854167,FALSE,FALSE,2.253151074840378,-0.12232556688643521
PKO,KEMANO RIVER,910-627400-00000-00000-0000-0000-000-000-000-000-000-000,6,PKO-13,1957,0,1279.648,7.154340319094229,200,5.298317366548036,275.062635269099,354.364168730726,1.375313176345495,0.3186814697990181,0.0141,0.0361,0.01,0.17417,0.215972,MH,-0.3276691034772351,0.0200262887854167,FALSE,FALSE,2.253151074840378,-0.1236414750859927
PKO,KEMANO RIVER,910-627400-00000-00000-0000-0000-000-000-000-000-000-000,6,PKO-13,1959,0,1279.648,7.154340319094229,200,5.298317366548036,2953.99567074604,275.062635269099,14.7699783537302,2.692596630985695,0.0119,0.0305,0.01,0.17417,0.215972,MH,0.7824977620566573,0.0200262887854167,FALSE,FALSE,2.253151074840378,-0.19733233426120944
PKO,KEMANO RIVER,910-627400-00000-00000-0000-0000-000-000-000-000-000-000,6,PKO-13,1965,0,1279.648,7.154340319094229,15000,9.615805480084347,10912.1709983172,45600.8928144083,0.72747806655448,-0.31817142945698856,0.0079,0.0202,0.01,0.17417,0.215972,MH,-0.7093794641235007,0.0200262887854167,FALSE,FALSE,2.253151074840378,-0.33287087881562594
PKO,KEMANO RIVER,910-627400-00000-00000-0000-0000-000-000-000-000-000-000,6,PKO-13,1967,0,1279.648,7.154340319094229,7500,8.922658299524402,876.739215052061,10912.1709983172,0.11689856200694147,-2.146448711632455,0.0075,0.0193,0.01,0.17417,0.215972,MH,-0.48089809283299456,0.0200262887854167,FALSE,FALSE,2.253151074840378,-0.3447140526116429
PKO,KEMANO RIVER,910-627400-00000-00000-0000-0000-000-000-000-000-000-000,6,PKO-13,1969,1031408.81611219,1279.648,7.154340319094229,750,6.620073206530356,4527.10521205675,876.739215052061,6.036140282742333,1.7977647816465239,0.0084,0.0217,0.01,0.17417,0.215972,MH,0.09673401232408343,0.0200262887854167,FALSE,FALSE,2.253151074840378,-0.3131322558222643
PKO,KEMANO RIVER,910-627400-00000-00000-0000-0000-000-000-000-000-000-000,6,PKO-13,1971,3027298.37389827,1279.648,7.154340319094229,3500,8.160518247477505,8638.00396818846,4527.10521205675,2.4680011337681313,0.9034085654304472,0.0115,0.0295,0.01,0.17417,0.215972,MH,-0.34080392906905344,0.0200262887854167,FALSE,FALSE,2.253151074840378,-0.21049141625678386
PKO,KEMANO RIVER,910-627400-00000-00000-0000-0000-000-000-000-000-000-000,6,PKO-13,1973,1836296.7107621,1279.648,7.154340319094229,5000,8.517193191416238,10765.7399223,8638.00396818846,2.15314798446,0.7669309500935337,0.0133,0.0341,0.01,0.17417,0.215972,MH,-0.20355231452664888,0.0200262887854167,FALSE,FALSE,2.253151074840378,-0.14995963907714155
PKO,KEMANO RIVER,910-627400-00000-00000-0000-0000-000-000-000-000-000-000,6,PKO-13,1975,324716.524297764,1279.648,7.154340319094229,7500,8.922658299524402,6886.39094927698,10765.7399223,0.9181854599035973,-0.08535588272738158,0.0114,0.0293,0.01,0.17417,0.215972,MH,1.2286162579398736,0.0200262887854167,FALSE,FALSE,2.253151074840378,-0.21312323265589875
PKO,KEMANO RIVER,910-627400-00000-00000-0000-0000-000-000-000-000-000-000,6,PKO-13,1977,76456.8456559994,1279.648,7.154340319094229,4000,8.294049640102028,67294.8112396359,6886.39094927698,16.823702809908976,2.8227887735932224,0.0119,0.0305,0.01,0.17417,0.215972,MH,0.9724829797884954,0.0200262887854167,FALSE,FALSE,2.253151074840378,-0.19733233426120944
PKO,KEMANO RIVER,910-627400-00000-00000-0000-0000-000-000-000-000-000-000,6,PKO-13,1979,1196584.76072215,1279.648,7.154340319094229,40000,10.596634733096073,116883.412051681,67294.8112396359,2.922085301292025,1.0722975056785962,0.0124,0.0317,0.01,0.17417,0.215972,MH,-1.19975713829789,0.0200262887854167,FALSE,FALSE,2.253151074840378,-0.18154143586652013
PKO,KEMANO RIVER,910-627400-00000-00000-0000-0000-000-000-000-000-000-000,6,PKO-13,1981,209483.09628265,1279.648,7.154340319094229,40000,10.596634733096073,206252.44135214,116883.412051681,5.1563110338035,1.6402214078896595,0.0121,0.031,0.01,0.17417,0.215972,MH,-0.22613906119882837,0.0200262887854167,FALSE,FALSE,2.253151074840378,-0.19075279326342223
PKO,KEMANO RIVER,910-627400-00000-00000-0000-0000-000-000-000-000-000-000,6,PKO-13,1983,16876.172479633,1279.648,7.154340319094229,120000,11.695247021764184,236570.768265499,206252.44135214,1.9714230688791583,0.6787556519556974,0.0113,0.029,0.01,0.17417,0.215972,MH,0.10267616261581472,0.0200262887854167,FALSE,FALSE,2.253151074840378,-0.21707095725457104
PKO,KEMANO RIVER,910-627400-00000-00000-0000-0000-000-000-000-000-000-000,6,PKO-13,1985,0,1279.648,7.154340319094229,130000,11.77528972943772,308629.578687231,236570.768265499,2.374073682209469,0.8646073328623076,0.0103,0.0263,0.01,0.17417,0.215972,MH,-0.9758993397997916,0.0200262887854167,FALSE,FALSE,2.253151074840378,-0.252600478642622
PKO,KEMANO RIVER,910-627400-00000-00000-0000-0000-000-000-000-000-000-000,6,PKO-13,1987,0,1279.648,7.154340319094229,150000,11.918390573078392,77840.3311327686,308629.578687231,0.518935540885124,-0.6559756022094585,0.0095,0.0243,0.01,0.17417,0.215972,MH,0.8862048812919091,0.0200262887854167,FALSE,FALSE,2.253151074840378,-0.2789186426337708
PKO,KEMANO RIVER,910-627400-00000-00000-0000-0000-000-000-000-000-000-000,6,PKO-13,1989,0,1279.648,7.154340319094229,70000,11.156250521031495,65884.7695883241,77840.3311327686,0.9412109941189156,-0.060587941237827646,0.0089,0.0228,0.01,0.17417,0.215972,MH,0.15947767939610902,0.0200262887854167,FALSE,FALSE,2.253151074840378,-0.2986572656271324
PKO,KEMANO RIVER,910-627400-00000-00000-0000-0000-000-000-000-000-000-000,6,PKO-13,1991,424353.369812034,1279.648,7.154340319094229,50000,10.819778284410283,10700.6487540104,65884.7695883241,0.21401297508020803,-1.5417186345823581,0.0082,0.021,0.01,0.17417,0.215972,MH,-0.18487911555035336,0.0200262887854167,FALSE,FALSE,2.253151074840378,-0.3223436132191664
PKO,KEMANO RIVER,910-627400-00000-00000-0000-0000-000-000-000-000-000-000,6,PKO-13,1993,303483.839135055,1279.648,7.154340319094229,10000,9.210340371976184,14779.5044144765,10700.6487540104,1.4779504414476499,0.39065629114357553,0.007,0.0179,0.01,0.17417,0.215972,MH,-1.7567819796155162,0.0200262887854167,FALSE,FALSE,2.253151074840378,-0.3631367674054471
PKO,KEMANO RIVER,910-627400-00000-00000-0000-0000-000-000-000-000-000-000,6,PKO-13,1995,77285.4946252088,1279.648,7.154340319094229,13000,9.472704636443673,64768.2528088331,14779.5044144765,4.982173292987162,1.6058662000542272,0.0062,0.0159,0.01,0.17417,0.215972,MH,-0.5672147431639023,0.0200262887854167,FALSE,FALSE,2.253151074840378,-0.3894549313965959
PKO,KEMANO RIVER,910-627400-00000-00000-0000-0000-000-000-000-000-000-000,6,PKO-13,1997,0,1279.648,7.154340319094229,55000,10.915088464214607,82006.0610439166,64768.2528088331,1.4910192917075746,0.39945997446990533,0.0053,0.0136,0.01,0.17417,0.215972,MH,0.8907774948170872,0.0200262887854167,FALSE,FALSE,2.253151074840378,-0.4197208199864171
PKO,KEMANO RIVER,910-627400-00000-00000-0000-0000-000-000-000-000-000-000,6,PKO-13,1999,1423164.82941954,1279.648,7.154340319094229,75000,11.225243392518447,388940.260163941,82006.0610439166,5.185870135519213,1.6459376454452799,0.0062,0.0158,0.01,0.17417,0.215972,MH,1.6302835492491898,0.0200262887854167,FALSE,FALSE,2.253151074840378,-0.39077083959615333
PKO,KEMANO RIVER,910-627400-00000-00000-0000-0000-000-000-000-000-000-000,6,PKO-13,2001,1314905.93800776,1279.648,7.154340319094229,285000,12.560244459250788,885284.127337191,388940.260163941,3.1062600959199687,1.1334194610530832,0.0079,0.0203,0.01,0.17417,0.215972,MH,1.9190067210816288,0.0200262887854167,FALSE,FALSE,2.253151074840378,-0.3315549706160685
PKO,KEMANO RIVER,910-627400-00000-00000-0000-0000-000-000-000-000-000-000,6,PKO-13,2003,982319.466681727,1279.648,7.154340319094229,600000,13.304684934198283,313356.951524266,885284.127337191,0.5222615858737767,-0.6495866942558209,0.0095,0.0244,0.01,0.17417,0.215972,MH,0.41101277747559006,0.0200262887854167,FALSE,FALSE,2.253151074840378,-0.27760273443421335
PKO,KEMANO RIVER,910-627400-00000-00000-0000-0000-000-000-000-000-000-000,6,PKO-13,2005,15531.6214541969,1279.648,7.154340319094229,210000,12.254862809699606,373564.248304575,313356.951524266,1.7788773728789284,0.5759824759419151,0.0091,0.0233,0.01,0.17417,0.215972,MH,-0.8145696192436794,0.0200262887854167,FALSE,FALSE,2.253151074840378,-0.2920777246293452
PKO,KEMANO RIVER,910-627400-00000-00000-0000-0000-000-000-000-000-000-000,6,PKO-13,2007,0,1279.648,7.154340319094229,300000,12.611537753638338,815211.935200114,373564.248304575,2.7173731173337137,0.9996656479696158,0.0089,0.0227,0.01,0.17417,0.215972,MH,0.8768892458318005,0.0200262887854167,FALSE,FALSE,2.253151074840378,-0.29997317382668987
PKO,KEMANO RIVER,910-627400-00000-00000-0000-0000-000-000-000-000-000-000,6,PKO-13,2009,0,1279.648,7.154340319094229,632000,13.356644673128994,116367.125494801,815211.935200114,0.1841251985677231,-1.6921393257601518,0.0088,0.0225,0.01,0.17417,0.215972,MH,1.604652193542091,0.0200262887854167,FALSE,FALSE,2.253151074840378,-0.3026049902258048
PKO,KEMANO RIVER,910-627400-00000-00000-0000-0000-000-000-000-000-000-000,6,PKO-13,2011,0,1279.648,7.154340319094229,98000,11.49272275765271,202694.592621675,116367.125494801,2.0683121696089284,0.7267328976761246,0.0079,0.0202,0.01,0.17417,0.215972,MH,0.7408851700104637,0.0200262887854167,FALSE,FALSE,2.253151074840378,-0.33287087881562594
PKO,KEMANO RIVER,910-627400-00000-00000-0000-0000-000-000-000-000-000-000,6,PKO-13,2013,0,1279.648,7.154340319094229,155000,11.951180395901384,28475.2111851706,202694.592621675,0.18371103990432644,-1.694391191101805,0.0066,0.017,0.01,0.17417,0.215972,MH,-0.5528640906240193,0.0200262887854167,FALSE,FALSE,2.253151074840378,-0.37497994120146405
PKO,WAHOO CREEK,910-627400-01800-00000-0000-0000-000-000-000-000-000-000,6,PKO-13,1961,0,213.32,5.3627933857324015,750,6.620073206530356,6867.96702883687,1476.99783537302,9.157289371782493,2.2145502147819616,0.0016,0.004,0.007,0.19688,0.259352,MH,0.00583928468743269,1.9587820096217e-4,FALSE,FALSE,0.9976265466880749,-0.5460480071439315
PKO,WAHOO CREEK,910-627400-01800-00000-0000-0000-000-000-000-000-000-000,6,PKO-13,1963,0,213.32,5.3627933857324015,3500,8.160518247477505,4560.08928144083,6867.96702883687,1.302882651840237,0.26457923410259526,0.0016,0.004,0.007,0.19688,0.259352,MH,0.5797944041154652,1.9587820096217e-4,FALSE,FALSE,0.9976265466880749,-0.5460480071439315
PKO,WAHOO CREEK,910-627400-01800-00000-0000-0000-000-000-000-000-000-000,6,PKO-13,1965,0,213.32,5.3627933857324015,1500,7.313220387090301,1091.21709983172,4560.08928144083,0.7274780665544799,-0.31817142945698873,0.0016,0.004,0.007,0.19688,0.259352,MH,-0.7093794641235007,1.9587820096217e-4,FALSE,FALSE,0.9976265466880749,-0.5460480071439315
PKO,WAHOO CREEK,910-627400-01800-00000-0000-0000-000-000-000-000-000-000,6,PKO-13,1971,19255.065860656,213.32,5.3627933857324015,200,5.298317366548036,43.1900198409423,258.691726403243,0.2159500992047115,-1.532707920188121,0.0012,0.003,0.007,0.19688,0.259352,MH,-0.34080392906905344,1.9587820096217e-4,FALSE,FALSE,0.9976265466880749,-0.5592070891395059
PKO,WAHOO CREEK,910-627400-01800-00000-0000-0000-000-000-000-000-000-000,6,PKO-13,1973,0,213.32,5.3627933857324015,25,3.2188758248682006,1148.34559171199,43.1900198409423,45.9338236684796,3.827201744785087,0.0012,0.003,0.007,0.19688,0.259352,MH,-0.20355231452664888,1.9587820096217e-4,FALSE,FALSE,0.9976265466880749,-0.5592070891395059
PKO,WAHOO CREEK,910-627400-01800-00000-0000-0000-000-000-000-000-000-000,6,PKO-13,1975,0,213.32,5.3627933857324015,800,6.684611727667927,344.319547463849,1148.34559171199,0.43039943432981126,-0.8430415844248981,0.0012,0.003,0.007,0.19688,0.259352,MH,1.2286162579398736,1.9587820096217e-4,FALSE,FALSE,0.9976265466880749,-0.5592070891395059
PKO,WAHOO CREEK,910-627400-01800-00000-0000-0000-000-000-000-000-000-000,6,PKO-13,1977,0,213.32,5.3627933857324015,200,5.298317366548036,252.355542148635,344.319547463849,1.2617777107431751,0.23252160814739725,0.001,0.0026,0.007,0.19688,0.259352,MH,0.9724829797884954,1.9587820096217e-4,FALSE,FALSE,0.9976265466880749,-0.5644707219377357
PKO,WAHOO CREEK,910-627400-01800-00000-0000-0000-000-000-000-000-000-000,6,PKO-13,1979,0,213.32,5.3627933857324015,150,5.0106352940962555,730.521325323009,252.355542148635,4.870142168820061,1.5831231294445907,0.001,0.0026,0.007,0.19688,0.259352,MH,-1.19975713829789,1.9587820096217e-4,FALSE,FALSE,0.9976265466880749,-0.5644707219377357
PKO,WAHOO CREEK,910-627400-01800-00000-0000-0000-000-000-000-000-000-000,6,PKO-13,1981,0,213.32,5.3627933857324015,250,5.521460917862246,687.508137840466,730.521325323009,2.750032551361864,1.0116127484672846,0.001,0.0026,0.007,0.19688,0.259352,MH,-0.22613906119882837,1.9587820096217e-4,FALSE,FALSE,0.9976265466880749,-0.5644707219377357
PKO,WAHOO CREEK,910-627400-01800-00000-0000-0000-000-000-000-000-000-000,6,PKO-13,1983,0,213.32,5.3627933857324015,400,5.991464547107982,909.887570251919,687.508137840466,2.2747189256297973,0.8218564955963704,0.001,0.0025,0.007,0.19688,0.259352,MH,0.10267616261581472,1.9587820096217e-4,FALSE,FALSE,0.9976265466880749,-0.565786630137293
PKO,WAHOO CREEK,910-627400-01800-00000-0000-0000-000-000-000-000-000-000,6,PKO-13,1985,0,213.32,5.3627933857324015,500,6.214608098422191,2057.53052458154,909.887570251919,4.11506104916308,1.4146536697815797,0.001,0.0025,0.007,0.19688,0.259352,MH,-0.9758993397997916,1.9587820096217e-4,FALSE,FALSE,0.9976265466880749,-0.565786630137293
PKO,WAHOO CREEK,910-627400-01800-00000-0000-0000-000-000-000-000-000-000,6,PKO-13,1987,0,213.32,5.3627933857324015,1000,6.907755278982137,1112.00473046812,2057.53052458154,1.11200473046812,0.10616444983743584,6e-4,0.0015,0.007,0.19688,0.259352,MH,0.8862048812919091,1.9587820096217e-4,FALSE,FALSE,0.9976265466880749,-0.5789457121328675
PKO,WAHOO CREEK,910-627400-01800-00000-0000-0000-000-000-000-000-000-000,6,PKO-13,1989,0,213.32,5.3627933857324015,1000,6.907755278982137,2635.39078353296,1112.00473046812,2.63539078353296,0.9690314759433292,6e-4,0.0015,0.007,0.19688,0.259352,MH,0.15947767939610902,1.9587820096217e-4,FALSE,FALSE,0.9976265466880749,-0.5789457121328675