Species,River,WATERSHED_CDE,DFO,CU,BroodYear,hararea_m2_3005,area_km2,ln_area_km2,Spawners,logS,Recruits,Returns,recruitPerSpawner,ln_RS,ECA_age_proxy,ECA_age_proxy_forested_only,lake_cover_pct,var_eaubc_KFACTOR,var_eaubc_MELTONS_R,vri_bec_zone,npgo,portion_reporting_vri_cover1_missing,hatchery_enhancement,year_of_enhacement,ln_area_km2_std,ECA_age_proxy_forested_only_std
PKO,DALLY CREEK,915-488300-09100-00000-0000-0000-000-000-000-000-000-000,6,PKO-13,2005,0,5.629,1.7279318064818894,1300,7.170119543449628,2116.86407372592,1939.82874753117,1.6283569797891695,0.4875715185978599,0,0,0.002,0.29028,0.158602,CWH,-0.8145696192436794,0,FALSE,FALSE,-1.5497015663542986,-0.5986843351262291
PKO,DALLY CREEK,915-488300-09100-00000-0000-0000-000-000-000-000-000-000,6,PKO-13,2007,0,5.629,1.7279318064818894,1700,7.438383530044307,2837.76306557002,2116.86407372592,1.6692723915117764,0.51238783778106,0,0,0.002,0.29028,0.158602,CWH,0.8768892458318005,0,FALSE,FALSE,-1.5497015663542986,-0.5986843351262291
PKO,ARNOUP CREEK,915-488300-11100-00000-0000-0000-000-000-000-000-000-000,6,PKO-13,1955,0,42.879,3.758382195595088,200,5.298317366548036,708.728337461451,382.709313391688,3.543641687307255,1.2651549235985358,0.0074,0.0088,0.006,-21.2962,0.202889,CWH,-0.07106879047729574,5.47040645031069e-5,FALSE,FALSE,-0.1267523713006702,-0.48288441356517425
PKO,ARNOUP CREEK,915-488300-11100-00000-0000-0000-000-000-000-000-000-000,6,PKO-13,1957,0,42.879,3.758382195595088,400,5.991464547107982,4813.59611720924,708.728337461451,12.0339902930231,2.4877351701685426,0.0074,0.0088,0.006,-21.2962,0.202889,CWH,-0.3276691034772351,5.47040645031069e-5,FALSE,FALSE,-0.1267523713006702,-0.48288441356517425
PKO,ARNOUP CREEK,915-488300-11100-00000-0000-0000-000-000-000-000-000-000,6,PKO-13,1959,0,42.879,3.758382195595088,3500,8.160518247477505,14769.9783537302,4813.59611720924,4.2199938153514855,1.4398336624903265,0.0068,0.0081,0.006,-21.2962,0.202889,CWH,0.7824977620566573,5.47040645031069e-5,FALSE,FALSE,-0.1267523713006702,-0.49209577096207635
PKO,ARNOUP CREEK,915-488300-11100-00000-0000-0000-000-000-000-000-000-000,6,PKO-13,1961,0,42.879,3.758382195595088,7500,8.922658299524402,68679.6702883687,14769.9783537302,9.157289371782493,2.2145502147819616,0.0068,0.0081,0.006,-21.2962,0.202889,CWH,0.00583928468743269,5.47040645031069e-5,FALSE,FALSE,-0.1267523713006702,-0.49209577096207635
PKO,ARNOUP CREEK,915-488300-11100-00000-0000-0000-000-000-000-000-000-000,6,PKO-13,1963,0,42.879,3.758382195595088,35000,10.46310334047155,106402.083233619,68679.6702883687,3.040059520960543,1.1118770944897955,0.0068,0.0081,0.006,-21.2962,0.202889,CWH,0.5797944041154652,5.47040645031069e-5,FALSE,FALSE,-0.1267523713006702,-0.49209577096207635
PKO,ARNOUP CREEK,915-488300-11100-00000-0000-0000-000-000-000-000-000-000,6,PKO-13,1969,0,42.879,3.758382195595088,800,6.684611727667927,3880.37589604864,935.188496055532,4.8504698700608,1.5790755806816936,0.0014,0.0016,0.006,-21.2962,0.202889,CWH,0.09673401232408343,5.47040645031069e-5,FALSE,FALSE,-0.1267523713006702,-0.5776298039333101
PKO,ARNOUP CREEK,915-488300-11100-00000-0000-0000-000-000-000-000-000-000,6,PKO-13,1971,0,42.879,3.758382195595088,3000,8.006367567650246,6910.40317455077,3880.37589604864,2.3034677248502566,0.8344156939434961,0.0014,0.0016,0.006,-21.2962,0.202889,CWH,-0.34080392906905344,5.47040645031069e-5,FALSE,FALSE,-0.1267523713006702,-0.5776298039333101
PKO,ARNOUP CREEK,915-488300-11100-00000-0000-0000-000-000-000-000-000-000,6,PKO-13,1973,0,42.879,3.758382195595088,4000,8.294049640102028,2153.14798445999,6910.40317455077,0.5382869961149974,-0.6193634110263616,0.0014,0.0016,0.006,-21.2962,0.202889,CWH,-0.20355231452664888,5.47040645031069e-5,FALSE,FALSE,-0.1267523713006702,-0.5776298039333101
PKO,ARNOUP CREEK,915-488300-11100-00000-0000-0000-000-000-000-000-000-000,6,PKO-13,1975,0,42.879,3.758382195595088,1500,7.313220387090301,5164.79321195773,2153.14798445999,3.4431954746384865,1.236399957254937,0.0014,0.0016,0.006,-21.2962,0.202889,CWH,1.2286162579398736,5.47040645031069e-5,FALSE,FALSE,-0.1267523713006702,-0.5776298039333101
PKO,ARNOUP CREEK,915-488300-11100-00000-0000-0000-000-000-000-000-000-000,6,PKO-13,1977,0,42.879,3.758382195595088,3000,8.006367567650246,3364.7405619818,5164.79321195773,1.1215801873272666,0.11473857249101364,0.0014,0.0016,0.006,-21.2962,0.202889,CWH,0.9724829797884954,5.47040645031069e-5,FALSE,FALSE,-0.1267523713006702,-0.5776298039333101
PKO,ARNOUP CREEK,915-488300-11100-00000-0000-0000-000-000-000-000-000-000,6,PKO-13,1979,0,42.879,3.758382195595088,2000,7.600902459542082,8766.25590387611,3364.7405619818,4.3831279519380555,1.4777626137867648,0,0,0.006,-21.2962,0.202889,CWH,-1.19975713829789,5.47040645031069e-5,FALSE,FALSE,-0.1267523713006702,-0.5986843351262291
PKO,ARNOUP CREEK,915-488300-11100-00000-0000-0000-000-000-000-000-000-000,6,PKO-13,1981,0,42.879,3.758382195595088,3000,8.006367567650246,1203.13924122082,8766.25590387611,0.40104641374027333,-0.9136781133852894,0,0,0.006,-21.2962,0.202889,CWH,-0.22613906119882837,5.47040645031069e-5,FALSE,FALSE,-0.1267523713006702,-0.5986843351262291
PKO,ARNOUP CREEK,915-488300-11100-00000-0000-0000-000-000-000-000-000-000,6,PKO-13,1983,0,42.879,3.758382195595088,700,6.551080335043404,10008.7632727711,1203.13924122082,14.298233246815858,2.6601359804593177,0,0,0.006,-21.2962,0.202889,CWH,0.10267616261581472,5.47040645031069e-5,FALSE,FALSE,-0.1267523713006702,-0.5986843351262291
PKO,ARNOUP CREEK,915-488300-11100-00000-0000-0000-000-000-000-000-000-000,6,PKO-13,1985,0,42.879,3.758382195595088,5500,8.612503371220562,308.629578687231,10008.7632727711,0.05611446885222382,-2.880361587902672,0,0,0.006,-21.2962,0.202889,CWH,-0.9758993397997916,5.47040645031069e-5,FALSE,FALSE,-0.1267523713006702,-0.5986843351262291
PKO,ARNOUP CREEK,915-488300-11100-00000-0000-0000-000-000-000-000-000-000,6,PKO-13,1987,0,42.879,3.758382195595088,150,5.0106352940962555,250.201064355328,308.629578687231,1.6680070957021866,0.5116295579456042,0,0,0.006,-21.2962,0.202889,CWH,0.8862048812919091,5.47040645031069e-5,FALSE,FALSE,-0.1267523713006702,-0.5986843351262291
PKO,ARNOUP CREEK,915-488300-11100-00000-0000-0000-000-000-000-000-000-000,6,PKO-13,1989,0,42.879,3.758382195595088,225,5.41610040220442,329.42384794162,250.201064355328,1.4641059908516445,0.3812448110412102,0,0,0.006,-21.2962,0.202889,CWH,0.15947767939610902,5.47040645031069e-5,FALSE,FALSE,-0.1267523713006702,-0.5986843351262291
PKO,ARNOUP CREEK,915-488300-11100-00000-0000-0000-000-000-000-000-000-000,6,PKO-13,1991,0,42.879,3.758382195595088,250,5.521460917862246,642.038925240622,329.42384794162,2.568155700962488,0.943188015205639,0,0,0.006,-21.2962,0.202889,CWH,-0.18487911555035336,5.47040645031069e-5,FALSE,FALSE,-0.1267523713006702,-0.5986843351262291
PKO,ARNOUP CREEK,915-488300-11100-00000-0000-0000-000-000-000-000-000-000,6,PKO-13,1993,0,42.879,3.758382195595088,600,6.396929655216146,1477.95044144765,642.038925240622,2.4632507357460836,0.9014819149095664,0,0,0.006,-21.2962,0.202889,CWH,-1.7567819796155162,5.47040645031069e-5,FALSE,FALSE,-0.1267523713006702,-0.5986843351262291
PKO,ARNOUP CREEK,915-488300-11100-00000-0000-0000-000-000-000-000-000-000,6,PKO-13,1995,0,42.879,3.758382195595088,1300,7.170119543449628,1907.71944636927,1477.95044144765,1.4674764972071308,0.3835442570600967,0,0,0.006,-21.2962,0.202889,CWH,-0.5672147431639023,5.47040645031069e-5,FALSE,FALSE,-0.1267523713006702,-0.5986843351262291
PKO,ARNOUP CREEK,915-488300-11100-00000-0000-0000-000-000-000-000-000-000,6,PKO-13,1997,0,42.879,3.758382195595088,1620,7.3901814282264295,2733.53536813056,1907.71944636927,1.6873675111917037,0.5231696287959305,0,0,0.006,-21.2962,0.202889,CWH,0.8907774948170872,5.47040645031069e-5,FALSE,FALSE,-0.1267523713006702,-0.5986843351262291
PKO,ARNOUP CREEK,915-488300-11100-00000-0000-0000-000-000-000-000-000-000,6,PKO-13,1999,0,42.879,3.758382195595088,2500,7.824046010856292,6823.5133362095,2733.53536813056,2.7294053344838,1.0040837592728864,0,0,0.006,-21.2962,0.202889,CWH,1.6302835492491898,5.47040645031069e-5,FALSE,FALSE,-0.1267523713006702,-0.5986843351262291
PKO,ARNOUP CREEK,915-488300-11100-00000-0000-0000-000-000-000-000-000-000,6,PKO-13,2001,0,42.879,3.758382195595088,5000,8.517193191416238,7377.36772780993,6823.5133362095,1.475473545561986,0.38897898610558806,0,0,0.006,-21.2962,0.202889,CWH,1.9190067210816288,5.47040645031069e-5,FALSE,FALSE,-0.1267523713006702,-0.5986843351262291
PKO,ARNOUP CREEK,915-488300-11100-00000-0000-0000-000-000-000-000-000-000,6,PKO-13,2003,0,42.879,3.758382195595088,5000,8.517193191416238,16413.935556033,7377.36772780993,3.2827871112066003,1.188692790607128,0,0,0.006,-21.2962,0.202889,CWH,0.41101277747559006,5.47040645031069e-5,FALSE,FALSE,-0.1267523713006702,-0.5986843351262291
PKO,ARNOUP CREEK,915-488300-11100-00000-0000-0000-000-000-000-000-000-000,6,PKO-13,2005,0,42.879,3.758382195595088,11000,9.305650551780507,93391.0620761437,16413.935556033,8.4900965523767,2.138900372741122,0,0,0.006,-21.2962,0.202889,CWH,-0.8145696192436794,5.47040645031069e-5,FALSE,FALSE,-0.1267523713006702,-0.5986843351262291
PKO,ARNOUP CREEK,915-488300-11100-00000-0000-0000-000-000-000-000-000-000,6,PKO-13,2011,0,42.879,3.758382195595088,11000,9.305650551780507,28246.4722621172,13061.6161269675,2.5678611147379273,0.9430733013191956,0,0,0.006,-21.2962,0.202889,CWH,0.7408851700104637,5.47040645031069e-5,FALSE,FALSE,-0.1267523713006702,-0.5986843351262291
PKO,NIAS CREEK,915-488300-13600-00000-0000-0000-000-000-000-000-000-000,6,PKO-13,1955,0,35.082,3.5576881784215884,75,4.31748811353631,2657.73126548044,143.515992521883,35.43641687307253,3.5677400165925808,0.0151,0.0169,0.009,0.29571,0.16422900000000001,CWH,-0.07106879047729574,0.00131925362763094,FALSE,FALSE,-0.26739968370008144,-0.3762958494010215
PKO,NIAS CREEK,915-488300-13600-00000-0000-0000-000-000-000-000-000-000,6,PKO-13,1957,0,35.082,3.5576881784215884,1500,7.313220387090301,4813.59611720924,2657.73126548044,3.2090640781394937,1.1659793301862234,0.0151,0.0169,0.009,0.29571,0.16422900000000001,CWH,-0.3276691034772351,0.00131925362763094,FALSE,FALSE,-0.26739968370008144,-0.3762958494010215
PKO,NIAS CREEK,915-488300-13600-00000-0000-0000-000-000-000-000-000-000,6,PKO-13,1959,0,35.082,3.5576881784215884,3500,8.160518247477505,29539.9567074604,4813.59611720924,8.439987630702971,2.1329808430502717,0.0113,0.0127,0.009,0.29571,0.16422900000000001,CWH,0.7824977620566573,0.00131925362763094,FALSE,FALSE,-0.26739968370008144,-0.4315639937824341
PKO,NIAS CREEK,915-488300-13600-00000-0000-0000-000-000-000-000-000-000,6,PKO-13,1961,0,35.082,3.5576881784215884,15000,9.615805480084347,68679.6702883687,29539.9567074604,4.578644685891247,1.5214030342220164,0.0113,0.0127,0.009,0.29571,0.16422900000000001,CWH,0.00583928468743269,0.00131925362763094,FALSE,FALSE,-0.26739968370008144,-0.4315639937824341
PKO,NIAS CREEK,915-488300-13600-00000-0000-0000-000-000-000-000-000-000,6,PKO-13,1963,0,35.082,3.5576881784215884,35000,10.46310334047155,10640.2083233619,68679.6702883687,0.3040059520960543,-1.1907079985042501,0.0113,0.0127,0.009,0.29571,0.16422900000000001,CWH,0.5797944041154652,0.00131925362763094,FALSE,FALSE,-0.26739968370008144,-0.4315639937824341
PKO,NIAS CREEK,915-488300-13600-00000-0000-0000-000-000-000-000-000-000,6,PKO-13,1969,0,35.082,3.5576881784215884,3500,8.160518247477505,29749.5485363729,4091.44967024295,8.499871010392257,2.1400509881331558,0.0032,0.0036,0.009,0.29571,0.16422900000000001,CWH,0.09673401232408343,0.00131925362763094,FALSE,FALSE,-0.26739968370008144,-0.5513116399421613
PKO,NIAS CREEK,915-488300-13600-00000-0000-0000-000-000-000-000-000-000,6,PKO-13,1971,0,35.082,3.5576881784215884,23000,10.043249494911286,6910.40317455077,29749.5485363729,0.30045231193699,-1.2024662333175438,0.0032,0.0036,0.009,0.29571,0.16422900000000001,CWH,-0.34080392906905344,0.00131925362763094,FALSE,FALSE,-0.26739968370008144,-0.5513116399421613
PKO,NIAS CREEK,915-488300-13600-00000-0000-0000-000-000-000-000-000-000,6,PKO-13,1973,0,35.082,3.5576881784215884,4000,8.294049640102028,1148.34559171199,6910.40317455077,0.2870863979279975,-1.2479720704487396,0.0032,0.0036,0.009,0.29571,0.16422900000000001,CWH,-0.20355231452664888,0.00131925362763094,FALSE,FALSE,-0.26739968370008144,-0.5513116399421613
PKO,NIAS CREEK,915-488300-13600-00000-0000-0000-000-000-000-000-000-000,6,PKO-13,1979,0,35.082,3.5576881784215884,600,6.396929655216146,4383.12795193806,1009.42216859454,7.305213253230099,1.9885882375527564,0.0011,0.0012,0.009,0.29571,0.16422900000000001,CWH,-1.19975713829789,0.00131925362763094,FALSE,FALSE,-0.26739968370008144,-0.5828934367315398
PKO,NIAS CREEK,915-488300-13600-00000-0000-0000-000-000-000-000-000-000,6,PKO-13,1981,0,35.082,3.5576881784215884,1500,7.313220387090301,429.692586150291,4383.12795193806,0.286461724100194,-1.2501503500065068,0.0011,0.0012,0.009,0.29571,0.16422900000000001,CWH,-0.22613906119882837,0.00131925362763094,FALSE,FALSE,-0.26739968370008144,-0.5828934367315398
PKO,NIAS CREEK,915-488300-13600-00000-0000-0000-000-000-000-000-000-000,6,PKO-13,1983,0,35.082,3.5576881784215884,250,5.521460917862246,1091.8650843023,429.692586150291,4.3674603372092,1.474181681636058,0.0036,0.0041,0.009,0.29571,0.16422900000000001,CWH,0.10267616261581472,0.00131925362763094,FALSE,FALSE,-0.26739968370008144,-0.544732098944374
PKO,NIAS CREEK,915-488300-13600-00000-0000-0000-000-000-000-000-000-000,6,PKO-13,1985,0,35.082,3.5576881784215884,600,6.396929655216146,102.876526229077,1091.8650843023,0.17146087704846166,-1.763400160566366,0.0036,0.0041,0.009,0.29571,0.16422900000000001,CWH,-0.9758993397997916,0.00131925362763094,FALSE,FALSE,-0.26739968370008144,-0.544732098944374
PKO,NIAS CREEK,915-488300-13600-00000-0000-0000-000-000-000-000-000-000,6,PKO-13,1987,0,35.082,3.5576881784215884,50,3.912023005428146,83.4003547851093,102.876526229077,1.668007095702186,0.5116295579456038,0.0036,0.0041,0.009,0.29571,0.16422900000000001,CWH,0.8862048812919091,0.00131925362763094,FALSE,FALSE,-0.26739968370008144,-0.544732098944374
PKO,NIAS CREEK,915-488300-13600-00000-0000-0000-000-000-000-000-000-000,6,PKO-13,1989,0,35.082,3.5576881784215884,75,4.31748811353631,131.769539176648,83.4003547851093,1.7569271890219735,0.5635663678351649,0.0027,0.0031,0.009,0.29571,0.16422900000000001,CWH,0.15947767939610902,0.00131925362763094,FALSE,FALSE,-0.26739968370008144,-0.5578911809399485
PKO,NIAS CREEK,915-488300-13600-00000-0000-0000-000-000-000-000-000-000,6,PKO-13,1991,0,35.082,3.5576881784215884,100,4.605170185988092,144.45875817914,131.769539176648,1.4445875817914,0.36782387030207747,0.0027,0.0031,0.009,0.29571,0.16422900000000001,CWH,-0.18487911555035336,0.00131925362763094,FALSE,FALSE,-0.26739968370008144,-0.5578911809399485
PKO,NIAS CREEK,915-488300-13600-00000-0000-0000-000-000-000-000-000-000,6,PKO-13,1993,0,35.082,3.5576881784215884,135,4.90527477843843,255.79911486594,144.45875817914,1.8948082582662222,0.6391176504420776,0.0021,0.0024,0.009,0.29571,0.16422900000000001,CWH,-1.7567819796155162,0.00131925362763094,FALSE,FALSE,-0.26739968370008144,-0.5671025383368505
PKO,NIAS CREEK,915-488300-13600-00000-0000-0000-000-000-000-000-000-000,6,PKO-13,1995,0,35.082,3.5576881784215884,225,5.41610040220442,211.968827374363,255.79911486594,0.9420836772193911,-0.05966117903091629,0.0021,0.0024,0.009,0.29571,0.16422900000000001,CWH,-0.5672147431639023,0.00131925362763094,FALSE,FALSE,-0.26739968370008144,-0.5671025383368505
PKO,NIAS CREEK,915-488300-13600-00000-0000-0000-000-000-000-000-000-000,6,PKO-13,1997,0,35.082,3.5576881784215884,180,5.19295685089021,382.694951538278,211.968827374363,2.1260830641015445,0.7542813497593162,0.0021,0.0024,0.009,0.29571,0.16422900000000001,CWH,0.8907774948170872,0.00131925362763094,FALSE,FALSE,-0.26739968370008144,-0.5671025383368505
PKO,NIAS CREEK,915-488300-13600-00000-0000-0000-000-000-000-000-000-000,6,PKO-13,1999,0,35.082,3.5576881784215884,350,5.857933154483459,1501.1729339660901,382.694951538278,4.2890655256174,1.4560688830159438,0.0019,0.0022,0.009,0.29571,0.16422900000000001,CWH,1.6302835492491898,0.00131925362763094,FALSE,FALSE,-0.26739968370008144,-0.5697343547359655
PKO,NIAS CREEK,915-488300-13600-00000-0000-0000-000-000-000-000-000-000,6,PKO-13,2001,0,35.082,3.5576881784215884,1100,7.003065458786462,1918.11560923058,1501.1729339660901,1.743741462936891,0.5560330707687534,0.0019,0.0022,0.009,0.29571,0.16422900000000001,CWH,1.9190067210816288,0.00131925362763094,FALSE,FALSE,-0.26739968370008144,-0.5697343547359655
PKO,NIAS CREEK,915-488300-13600-00000-0000-0000-000-000-000-000-000-000,6,PKO-13,2003,0,35.082,3.5576881784215884,1300,7.170119543449628,11937.4076771149,1918.11560923058,9.182621290088385,2.217312707455202,6e-4,7e-4,0.009,0.29571,0.16422900000000001,CWH,0.41101277747559006,0.00131925362763094,FALSE,FALSE,-0.26739968370008144,-0.589472977729327
PKO,NIAS CREEK,915-488300-13600-00000-0000-0000-000-000-000-000-000-000,6,PKO-13,2005,0,35.082,3.5576881784215884,8000,8.987196820661973,27394.7115423355,11937.4076771149,3.4243389427919375,1.2309084436816626,6e-4,7e-4,0.009,0.29571,0.16422900000000001,CWH,-0.8145696192436794,0.00131925362763094,FALSE,FALSE,-0.26739968370008144,-0.589472977729327
PKO,NIAS CREEK,915-488300-13600-00000-0000-0000-000-000-000-000-000-000,6,PKO-13,2007,0,35.082,3.5576881784215884,22000,9.998797732340453,32247.3075632956,27394.7115423355,1.4657867074225273,0.3823920999888426,6e-4,7e-4,0.009,0.29571,0.16422900000000001,CWH,0.8768892458318005,0.00131925362763094,FALSE,FALSE,-0.26739968370008144,-0.589472977729327
PKO,TYLER CREEK,915-488300-15800-00000-0000-0000-000-000-000-000-000-000,6,PKO-12,1955,0,33.843,3.521732183290893,25,3.2188758248682006,1494.71409903902,51.0315912678342,59.788563961560804,4.090814404567259,0.0048,0.0073,0.02,0.29534,0.102019,CWH,-0.07106879047729574,2.6982388788428e-4,FALSE,FALSE,-0.29259781442167004,-0.5026230365585359
PKO,TYLER CREEK,915-488300-15800-00000-0000-0000-000-000-000-000-000-000,6,PKO-12,1957,0,33.843,3.521732183290893,750,6.620073206530356,5213.27188440826,1494.71409903902,6.951029179211013,1.9388897319531595,0.0048,0.0073,0.02,0.29534,0.102019,CWH,-0.3276691034772351,2.6982388788428e-4,FALSE,FALSE,-0.29259781442167004,-0.5026230365585359
PKO,TYLER CREEK,915-488300-15800-00000-0000-0000-000-000-000-000-000-000,6,PKO-12,1959,0,33.843,3.521732183290893,3500,8.160518247477505,17205.0243818938,5213.27188440826,4.915721251969657,1.5924384878930773,0.0048,0.0073,0.02,0.29534,0.102019,CWH,0.7824977620566573,2.6982388788428e-4,FALSE,FALSE,-0.29259781442167004,-0.5026230365585359
PKO,TYLER CREEK,915-488300-15800-00000-0000-0000-000-000-000-000-000-000,6,PKO-12,1961,0,33.843,3.521732183290893,7500,8.922658299524402,13534.5563833405,17205.0243818938,1.8046075177787333,0.590343126467144,0.0048,0.0073,0.02,0.29534,0.102019,CWH,0.00583928468743269,2.6982388788428e-4,FALSE,FALSE,-0.29259781442167004,-0.5026230365585359
PKO,TYLER CREEK,915-488300-15800-00000-0000-0000-000-000-000-000-000-000,6,PKO-12,1963,0,33.843,3.521732183290893,7500,8.922658299524402,8470.9981051781,13534.5563833405,1.1294664140237467,0.12174532122374555,0.0016,0.0025,0.02,0.29534,0.102019,CWH,0.5797944041154652,2.6982388788428e-4,FALSE,FALSE,-0.29259781442167004,-0.565786630137293
PKO,TYLER CREEK,915-488300-15800-00000-0000-0000-000-000-000-000-000-000,6,PKO-12,1969,0,33.843,3.521732183290893,250,5.521460917862246,5575.41924884253,448.290357305795,22.30167699537012,3.1046618772246797,0.0016,0.0024,0.02,0.29534,0.102019,CWH,0.09673401232408343,2.6982388788428e-4,FALSE,FALSE,-0.29259781442167004,-0.5671025383368505
PKO,TYLER CREEK,915-488300-15800-00000-0000-0000-000-000-000-000-000-000,6,PKO-12,1971,0,33.843,3.521732183290893,4000,8.294049640102028,948.620258490255,5575.41924884253,0.23715506462256375,-1.4390410706877095,0.0016,0.0024,0.02,0.29534,0.102019,CWH,-0.34080392906905344,2.6982388788428e-4,FALSE,FALSE,-0.29259781442167004,-0.5671025383368505