Species,River,WATERSHED_CDE,DFO,CU,BroodYear,hararea_m2_3005,area_km2,ln_area_km2,Spawners,logS,Recruits,Returns,recruitPerSpawner,ln_RS,ECA_age_proxy,ECA_age_proxy_forested_only,lake_cover_pct,var_eaubc_KFACTOR,var_eaubc_MELTONS_R,vri_bec_zone,npgo,portion_reporting_vri_cover1_missing,hatchery_enhancement,year_of_enhacement,ln_area_km2_std,ECA_age_proxy_forested_only_std
PKO,NORTH KUMEALON CREEK,910-769900-00000-00000-0000-0000-000-000-000-000-000-000,5,PKO-14,1979,0,6.017,1.7945887962382148,500,6.214608098422191,8990.5354026561,830.872920590751,17.9810708053122,2.889319582626754,0.0077,0.0082,0,0.23531,0.140174,CWH,-1.19975713829789,0,FALSE,FALSE,-1.5029880340133845,-0.49077986276251895
PKO,NORTH KUMEALON CREEK,910-769900-00000-00000-0000-0000-000-000-000-000-000-000,5,PKO-14,1981,0,6.017,1.7945887962382148,5000,8.517193191416238,1655.72689823286,8990.5354026561,0.33114537964657204,-1.1051977865973086,0.0077,0.0082,0,0.23531,0.140174,CWH,-0.22613906119882837,0,FALSE,FALSE,-1.5029880340133845,-0.49077986276251895
PKO,NORTH KUMEALON CREEK,910-769900-00000-00000-0000-0000-000-000-000-000-000-000,5,PKO-14,1983,0,6.017,1.7945887962382148,500,6.214608098422191,10257.4933004157,1655.72689823286,20.5149866008314,3.021155672753863,0.0014,0.0015,0,0.23531,0.140174,CWH,0.10267616261581472,0,FALSE,FALSE,-1.5029880340133845,-0.5789457121328675
PKO,NORTH KUMEALON CREEK,910-769900-00000-00000-0000-0000-000-000-000-000-000-000,5,PKO-14,1985,1666786.30059804,6.017,1.7945887962382148,5000,8.517193191416238,5607.63610201057,10257.4933004157,1.1215272204021138,0.11469134610766694,0.2784,0.2979,0,0.23531,0.140174,CWH,-0.9758993397997916,0,FALSE,FALSE,-1.5029880340133845,3.3214061913553894
PKO,NORTH KUMEALON CREEK,910-769900-00000-00000-0000-0000-000-000-000-000-000-000,5,PKO-14,1987,13203.2653118421,6.017,1.7945887962382148,2500,7.824046010856292,9572.40273229112,5607.63610201057,3.8289610929164484,1.3425935112830332,0.2806,0.3003,0,0.23531,0.140174,CWH,0.8862048812919091,0,FALSE,FALSE,-1.5029880340133845,3.352987988144768
PKO,NORTH KUMEALON CREEK,910-769900-00000-00000-0000-0000-000-000-000-000-000-000,5,PKO-14,1989,349668.168996171,6.017,1.7945887962382148,4000,8.294049640102028,5191.66880654276,9572.40273229112,1.29791720163569,0.260760827060602,0.3387,0.3625,0,0.23531,0.140174,CWH,0.15947767939610902,0,FALSE,FALSE,-1.5029880340133845,4.171482888269496
PKO,NORTH KUMEALON CREEK,910-769900-00000-00000-0000-0000-000-000-000-000-000-000,5,PKO-14,1995,18095.4867771606,6.017,1.7945887962382148,1500,7.313220387090301,1728.79460921318,3755.33286370476,1.1525297394754532,0.14195929987283695,0.3403,0.3641,0,0.23531,0.140174,CWH,-0.5672147431639023,0,FALSE,FALSE,-1.5029880340133845,4.192537419462416
PKO,NORTH KUMEALON CREEK,910-769900-00000-00000-0000-0000-000-000-000-000-000-000,5,PKO-14,1997,0,6.017,1.7945887962382148,1000,6.907755278982137,6537.97969941612,1728.79460921318,6.53797969941612,1.877628203282839,0.2711,0.29,0,0.23531,0.140174,CWH,0.8907774948170872,0,FALSE,FALSE,-1.5029880340133845,3.2174494435903513
PKO,NORTH KUMEALON CREEK,910-769900-00000-00000-0000-0000-000-000-000-000-000-000,5,PKO-14,1999,0,6.017,1.7945887962382148,2500,7.824046010856292,7086.53067380921,6537.97969941612,2.834612269523684,1.0419051622263364,0.2705,0.2895,0,0.23531,0.140174,CWH,1.6302835492491898,0,FALSE,FALSE,-1.5029880340133845,3.2108699025925644
PKO,MOORE COVE CREEK,910-779100-00000-00000-0000-0000-000-000-000-000-000-000,4,PKO-14,1955,0.936147873289656,37.25,3.6176519448255684,15000,9.615805480084347,158195.504796688,26755.8739850206,10.546366986445868,2.355781439141722,8e-4,0.0012,0.072,0.23669,0.172104,CWH,-0.07106879047729574,0,FALSE,FALSE,-0.22537679380608447,-0.5828934367315398
PKO,MOORE COVE CREEK,910-779100-00000-00000-0000-0000-000-000-000-000-000-000,4,PKO-14,1957,3.23446236039402,37.25,3.6176519448255684,75000,11.225243392518447,105444.497827284,158195.504796688,1.40592663769712,0.3406966140023447,8e-4,0.0012,0.072,0.23669,0.172104,CWH,-0.3276691034772351,0,FALSE,FALSE,-0.22537679380608447,-0.5828934367315398
PKO,MOORE COVE CREEK,910-779100-00000-00000-0000-0000-000-000-000-000-000-000,4,PKO-14,1959,0,37.25,3.6176519448255684,60000,11.002099841204238,58598.0208866685,105444.497827284,0.9766336814444749,-0.023643639474506043,8e-4,0.0012,0.072,0.23669,0.172104,CWH,0.7824977620566573,0,FALSE,FALSE,-0.22537679380608447,-0.5828934367315398
PKO,MOORE COVE CREEK,910-779100-00000-00000-0000-0000-000-000-000-000-000-000,4,PKO-14,1961,0,37.25,3.6176519448255684,35000,10.46310334047155,96479.3010168805,58598.0208866685,2.7565514576251573,1.0139804266133057,8e-4,0.0012,0.072,0.23669,0.172104,CWH,0.00583928468743269,0,FALSE,FALSE,-0.22537679380608447,-0.5828934367315398
PKO,MOORE COVE CREEK,910-779100-00000-00000-0000-0000-000-000-000-000-000-000,4,PKO-14,1963,0,37.25,3.6176519448255684,75000,11.225243392518447,13541.6126281092,96479.3010168805,0.180554835041456,-1.7117207521021092,7e-4,0.001,0.072,0.23669,0.172104,CWH,0.5797944041154652,0,FALSE,FALSE,-0.22537679380608447,-0.5855252531306547
PKO,MOORE COVE CREEK,910-779100-00000-00000-0000-0000-000-000-000-000-000-000,4,PKO-14,1965,0,37.25,3.6176519448255684,7500,8.922658299524402,22865.7999796769,13541.6126281092,3.0487733306235865,1.1147393230397742,7e-4,0.001,0.072,0.23669,0.172104,CWH,-0.7093794641235007,0,FALSE,FALSE,-0.22537679380608447,-0.5855252531306547
PKO,MOORE COVE CREEK,910-779100-00000-00000-0000-0000-000-000-000-000-000-000,4,PKO-14,1967,0,37.25,3.6176519448255684,10000,9.210340371976184,25753.2386208422,22865.7999796769,2.57532386208422,0.9459752978902967,7e-4,0.001,0.072,0.23669,0.172104,CWH,-0.48089809283299456,0,FALSE,FALSE,-0.22537679380608447,-0.5855252531306547
PKO,MOORE COVE CREEK,910-779100-00000-00000-0000-0000-000-000-000-000-000-000,4,PKO-14,1969,0,37.25,3.6176519448255684,15000,9.615805480084347,100166.814576838,25753.2386208422,6.677787638455867,1.898786740844498,7e-4,0.001,0.072,0.23669,0.172104,CWH,0.09673401232408343,0,FALSE,FALSE,-0.22537679380608447,-0.5855252531306547
PKO,MOORE COVE CREEK,910-779100-00000-00000-0000-0000-000-000-000-000-000-000,4,PKO-14,1971,0,37.25,3.6176519448255684,65000,11.082142548877775,5339.08750362544,100166.814576838,0.0821398077480837,-2.499332510995985,7e-4,0.001,0.072,0.23669,0.172104,CWH,-0.34080392906905344,0,FALSE,FALSE,-0.22537679380608447,-0.5855252531306547
PKO,MOORE COVE CREEK,910-779100-00000-00000-0000-0000-000-000-000-000-000-000,4,PKO-14,1973,0,37.25,3.6176519448255684,3700,8.216088098632316,41951.7349400784,5339.08750362544,11.33830674056173,2.4281869697398695,4e-4,6e-4,0.072,0.23669,0.172104,CWH,-0.20355231452664888,0,FALSE,FALSE,-0.22537679380608447,-0.5907888859288845
PKO,MOORE COVE CREEK,910-779100-00000-00000-0000-0000-000-000-000-000-000-000,4,PKO-14,1975,0,37.25,3.6176519448255684,30000,10.308952660644293,22834.8257947125,41951.7349400784,0.7611608598237499,-0.27291056392609087,4e-4,6e-4,0.072,0.23669,0.172104,CWH,1.2286162579398736,0,FALSE,FALSE,-0.22537679380608447,-0.5907888859288845
PKO,MOORE COVE CREEK,910-779100-00000-00000-0000-0000-000-000-000-000-000-000,4,PKO-14,1977,0,37.25,3.6176519448255684,10000,9.210340371976184,3323.49168236301,22834.8257947125,0.332349168236301,-1.1015691511716632,4e-4,6e-4,0.072,0.23669,0.172104,CWH,0.9724829797884954,0,FALSE,FALSE,-0.22537679380608447,-0.5907888859288845
PKO,MOORE COVE CREEK,910-779100-00000-00000-0000-0000-000-000-000-000-000-000,4,PKO-14,1979,0,37.25,3.6176519448255684,2000,7.600902459542082,15283.9101845154,3323.49168236301,7.6419550922577,2.0336534725690356,4e-4,5e-4,0.072,0.23669,0.172104,CWH,-1.19975713829789,0,FALSE,FALSE,-0.22537679380608447,-0.592104794128442
PKO,MOORE COVE CREEK,910-779100-00000-00000-0000-0000-000-000-000-000-000-000,4,PKO-14,1981,0,37.25,3.6176519448255684,8500,9.047821442478408,39737.4455575885,15283.9101845154,4.674993595010412,1.542227792688463,4e-4,6e-4,0.072,0.23669,0.172104,CWH,-0.22613906119882837,0,FALSE,FALSE,-0.22537679380608447,-0.5907888859288845
PKO,MOORE COVE CREEK,910-779100-00000-00000-0000-0000-000-000-000-000-000-000,4,PKO-14,1983,0,37.25,3.6176519448255684,12000,9.392661928770137,61544.9598024942,39737.4455575885,5.12874665020785,1.6348613116339723,4e-4,5e-4,0.072,0.23669,0.172104,CWH,0.10267616261581472,0,FALSE,FALSE,-0.22537679380608447,-0.592104794128442
PKO,MOORE COVE CREEK,910-779100-00000-00000-0000-0000-000-000-000-000-000-000,4,PKO-14,1985,0,37.25,3.6176519448255684,30000,10.308952660644293,67291.6332241269,61544.9598024942,2.24305444080423,0.8078385266676132,4e-4,5e-4,0.072,0.23669,0.172104,CWH,-0.9758993397997916,0,FALSE,FALSE,-0.22537679380608447,-0.592104794128442
PKO,MOORE COVE CREEK,910-779100-00000-00000-0000-0000-000-000-000-000-000-000,4,PKO-14,1987,1710527.18119402,37.25,3.6176519448255684,30000,10.308952660644293,179482.551230458,67291.6332241269,5.982751707681933,1.78888061391145,0.0463,0.066,0.072,0.23669,0.172104,CWH,0.8862048812919091,0,FALSE,FALSE,-0.22537679380608447,0.2698150765816824
PKO,MOORE COVE CREEK,910-779100-00000-00000-0000-0000-000-000-000-000-000-000,4,PKO-14,1989,20.4794189360731,37.25,3.6176519448255684,75000,11.225243392518447,233625.096294424,179482.551230458,3.1150012839256536,1.1362295644145013,0.0463,0.066,0.072,0.23669,0.172104,CWH,0.15947767939610902,0,FALSE,FALSE,-0.22537679380608447,0.2698150765816824
PKO,MOORE COVE CREEK,910-779100-00000-00000-0000-0000-000-000-000-000-000-000,4,PKO-14,1991,0.28864250268748,37.25,3.6176519448255684,45000,10.714417768752456,48492.0662987022,233625.096294424,1.0776014733044934,0.07473771332215215,0.0463,0.066,0.072,0.23669,0.172104,CWH,-0.18487911555035336,0,FALSE,FALSE,-0.22537679380608447,0.2698150765816824
PKO,MOORE COVE CREEK,910-779100-00000-00000-0000-0000-000-000-000-000-000-000,4,PKO-14,1993,906863.322812008,37.25,3.6176519448255684,15000,9.615805480084347,75106.6572740952,48492.0662987022,5.0071104849396795,1.6108589991997573,0.0705,0.1007,0.072,0.23669,0.172104,CWH,-1.7567819796155162,0,FALSE,FALSE,-0.22537679380608447,0.7264352218281146
PKO,MOORE COVE CREEK,910-779100-00000-00000-0000-0000-000-000-000-000-000-000,4,PKO-14,1995,17124.3723867224,37.25,3.6176519448255684,30000,10.308952660644293,155591.514829186,75106.6572740952,5.186383827639533,1.6460366966491098,0.071,0.1013,0.072,0.23669,0.172104,CWH,-0.5672147431639023,0,FALSE,FALSE,-0.22537679380608447,0.7343306710254592
PKO,MOORE COVE CREEK,910-779100-00000-00000-0000-0000-000-000-000-000-000-000,4,PKO-14,1997,605300.814824564,37.25,3.6176519448255684,90000,11.407564949312402,392278.781964967,155591.514829186,4.358653132944078,1.4721630951746745,0.1016,0.1449,0.072,0.23669,0.172104,CWH,0.8907774948170872,0,FALSE,FALSE,-0.22537679380608447,1.3080666460325039
PKO,MOORE COVE CREEK,910-779100-00000-00000-0000-0000-000-000-000-000-000-000,4,PKO-14,1999,0,37.25,3.6176519448255684,150000,11.918390573078392,35432.653369046,392278.781964967,0.23621768912697333,-1.4430014875616652,0.0901,0.1285,0.072,0.23669,0.172104,CWH,1.6302835492491898,0,FALSE,FALSE,-0.22537679380608447,1.0922577013050836
PKO,MOORE COVE CREEK,910-779100-00000-00000-0000-0000-000-000-000-000-000-000,4,PKO-14,2001,0,37.25,3.6176519448255684,25000,10.126631103850338,41821.3364320044,35432.653369046,1.6728534572801759,0.5145308253888824,0.0901,0.1285,0.072,0.23669,0.172104,CWH,1.9190067210816288,0,FALSE,FALSE,-0.22537679380608447,1.0922577013050836
PKO,TLELL RIVER,940-057000-00000-00000-0000-0000-000-000-000-000-000-000,2,PKO-9,1955,0,327.243,5.7907030141869,7500,8.922658299524402,9639.99560361115,12505.5879343847,1.2853327471481535,0.25101763202315097,0.0044,0.0045,0.005,-0.09728,0.05576,CWH,-0.07106879047729574,0,FALSE,FALSE,1.297507629540319,-0.5394684661461443
PKO,TLELL RIVER,940-057000-00000-00000-0000-0000-000-000-000-000-000-000,2,PKO-9,1957,277337.447494743,327.243,5.7907030141869,3500,8.160518247477505,3570.99496154343,9639.99560361115,1.0202842747266943,0.02008128917879593,0.0053,0.0054,0.005,-0.09728,0.05576,CWH,-0.3276691034772351,0,FALSE,FALSE,1.297507629540319,-0.5276252923501272
PKO,TLELL RIVER,940-057000-00000-00000-0000-0000-000-000-000-000-000-000,2,PKO-9,1959,0,327.243,5.7907030141869,3500,8.160518247477505,7637.51497508246,3570.99496154343,2.182147135737846,0.7803093167313513,0.003,0.0031,0.005,-0.09728,0.05576,CWH,0.7824977620566573,0,FALSE,FALSE,1.297507629540319,-0.5578911809399485
PKO,TLELL RIVER,940-057000-00000-00000-0000-0000-000-000-000-000-000-000,2,PKO-9,1961,0,327.243,5.7907030141869,6000,8.699514748210191,15000.4527676662,7637.51497508246,2.5000754612777,0.9163209159296918,0.003,0.0031,0.005,-0.09728,0.05576,CWH,0.00583928468743269,0,FALSE,FALSE,1.297507629540319,-0.5578911809399485
PKO,TLELL RIVER,940-057000-00000-00000-0000-0000-000-000-000-000-000-000,2,PKO-9,1967,401773.404006637,327.243,5.7907030141869,10000,9.210340371976184,6569.83461160762,10270.6819852697,0.656983461160762,-0.4200964340856694,0.0042,0.0043,0.005,-0.09728,0.05576,CWH,-0.48089809283299456,0,FALSE,FALSE,1.297507629540319,-0.5421002825452592
PKO,TLELL RIVER,940-057000-00000-00000-0000-0000-000-000-000-000-000-000,2,PKO-9,1969,106875.634016416,327.243,5.7907030141869,6000,8.699514748210191,4057.07149000969,6569.83461160762,0.6761785816682817,-0.39129806376149173,0.0033,0.0033,0.005,-0.09728,0.05576,CWH,0.09673401232408343,0,FALSE,FALSE,1.297507629540319,-0.5552593645408336
PKO,TLELL RIVER,940-057000-00000-00000-0000-0000-000-000-000-000-000-000,2,PKO-9,1971,1412963.65296296,327.243,5.7907030141869,4000,8.294049640102028,1407.79555384799,4057.07149000969,0.3519488884619975,-1.0442693171600117,0.0089,0.0091,0.005,-0.09728,0.05576,CWH,-0.34080392906905344,0,FALSE,FALSE,1.297507629540319,-0.4789366889665019
PKO,TLELL RIVER,940-057000-00000-00000-0000-0000-000-000-000-000-000-000,2,PKO-9,1973,0,327.243,5.7907030141869,1400,7.24422751560335,1180.30508702935,1407.79555384799,0.8430750621638214,-0.1706992832315414,0.009,0.0092,0.005,-0.09728,0.05576,CWH,-0.20355231452664888,0,FALSE,FALSE,1.297507629540319,-0.47762078076694453
PKO,TLELL RIVER,940-057000-00000-00000-0000-0000-000-000-000-000-000-000,2,PKO-9,1975,41870.6139671631,327.243,5.7907030141869,1000,6.907755278982137,910.526042714726,1180.30508702935,0.910526042714726,-0.09373277757143456,0.0113,0.0116,0.005,-0.09728,0.05576,CWH,1.2286162579398736,0,FALSE,FALSE,1.297507629540319,-0.4460389839775659
PKO,TLELL RIVER,940-057000-00000-00000-0000-0000-000-000-000-000-000-000,2,PKO-9,1977,1258965.44136694,327.243,5.7907030141869,750,6.620073206530356,2000,910.526042714726,2.6666666666666665,0.9808292530117262,0.0186,0.0189,0.005,-0.09728,0.05576,CWH,0.9724829797884954,0,FALSE,FALSE,1.297507629540319,-0.3499776854098727
PKO,TLELL RIVER,940-057000-00000-00000-0000-0000-000-000-000-000-000-000,2,PKO-9,1979,868827.072141518,327.243,5.7907030141869,2000,7.600902459542082,305.156493847217,2000,0.1525782469236085,-1.8800777199416465,0.0254,0.0259,0.005,-0.09728,0.05576,CWH,-1.19975713829789,0,FALSE,FALSE,1.297507629540319,-0.25786411144085175
PKO,TLELL RIVER,940-057000-00000-00000-0000-0000-000-000-000-000-000-000,2,PKO-9,1981,0,327.243,5.7907030141869,300,5.703782474656201,1000,305.156493847217,3.3333333333333335,1.2039728043259361,0.0287,0.0293,0.005,-0.09728,0.05576,CWH,-0.22613906119882837,0,FALSE,FALSE,1.297507629540319,-0.21312323265589875
PKO,TLELL RIVER,940-057000-00000-00000-0000-0000-000-000-000-000-000-000,2,PKO-9,1983,110238.985073756,327.243,5.7907030141869,1000,6.907755278982137,1326.64025107473,1000,1.32664025107473,0.2826496191798015,0.0301,0.0307,0.005,-0.09728,0.05576,CWH,0.10267616261581472,0,FALSE,FALSE,1.297507629540319,-0.19470051786209452
PKO,TLELL RIVER,940-057000-00000-00000-0000-0000-000-000-000-000-000-000,2,PKO-9,1985,231878.78985997,327.243,5.7907030141869,1000,6.907755278982137,5521.00998264857,1326.64025107473,5.52100998264857,1.7085608114235422,0.0307,0.0313,0.005,-0.09728,0.05576,CWH,-0.9758993397997916,0,FALSE,FALSE,1.297507629540319,-0.18680506866474988
PKO,TLELL RIVER,940-057000-00000-00000-0000-0000-000-000-000-000-000-000,2,PKO-9,1987,2101847.23493928,327.243,5.7907030141869,5500,8.612503371220562,5346.75976856833,5521.00998264857,0.9721381397396964,-0.02825736554589505,0.0473,0.0482,0.005,-0.09728,0.05576,CWH,0.8862048812919091,0,FALSE,FALSE,1.297507629540319,0.035583417060457735
PKO,TLELL RIVER,940-057000-00000-00000-0000-0000-000-000-000-000-000-000,2,PKO-9,1989,1062597.48924568,327.243,5.7907030141869,5000,8.517193191416238,1004.49679060262,5346.75976856833,0.20089935812052398,-1.6049512021861434,0.0494,0.0504,0.005,-0.09728,0.05576,CWH,0.15947767939610902,0,FALSE,FALSE,1.297507629540319,0.06453339745072147
PKO,TLELL RIVER,940-057000-00000-00000-0000-0000-000-000-000-000-000-000,2,PKO-9,1991,2652822.29656313,327.243,5.7907030141869,1000,6.907755278982137,5029.94317627924,1004.49679060262,5.02994317627924,1.615408687085459,0.0621,0.0634,0.005,-0.09728,0.05576,CWH,-0.18487911555035336,0,FALSE,FALSE,1.297507629540319,0.23560146339318885
PKO,TLELL RIVER,940-057000-00000-00000-0000-0000-000-000-000-000-000-000,2,PKO-9,1993,1902837.80492046,327.243,5.7907030141869,5000,8.517193191416238,3012.19817967522,5029.94317627924,0.602439635935044,-0.5067678079560411,0.0738,0.0753,0.005,-0.09728,0.05576,CWH,-1.7567819796155162,0,FALSE,FALSE,1.297507629540319,0.3921945391405245
PKO,TLELL RIVER,940-057000-00000-00000-0000-0000-000-000-000-000-000-000,2,PKO-9,1995,16802.8917421239,327.243,5.7907030141869,3000,8.006367567650246,1030.27432036661,3012.19817967522,0.3434247734555367,-1.068787191433205,0.0747,0.0762,0.005,-0.09728,0.05576,CWH,-0.5672147431639023,0,FALSE,FALSE,1.297507629540319,0.40403771293654145
PKO,TLELL RIVER,940-057000-00000-00000-0000-0000-000-000-000-000-000-000,2,PKO-9,2007,434426.846059391,327.243,5.7907030141869,6697,8.80941494391005,5934,6697,0.8860683888308197,-0.12096114305928313,0.0512,0.0522,0.005,-0.09728,0.05576,CWH,0.8768892458318005,0,FALSE,FALSE,1.297507629540319,0.08821974504275545
PKO,TLELL RIVER,940-057000-00000-00000-0000-0000-000-000-000-000-000-000,2,PKO-9,2009,15594.8447164961,327.243,5.7907030141869,5934,8.688453800850768,18745,5934,3.1589147286821704,1.1502285283192453,0.0464,0.0473,0.005,-0.09728,0.05576,CWH,1.604652193542091,0,FALSE,FALSE,1.297507629540319,0.02374024326444079
PKO,HONNA RIVER,940-103900-00000-00000-0000-0000-000-000-000-000-000-000,2,PKO-9,1955,0,47.632,3.8635048042734206,25,3.2188758248682006,68.8571114543653,41.6852931146155,2.7542844581746118,1.0131576840700467,0.0012,0.0012,0.006,0.17012,0.133327,CWH,-0.07106879047729574,0,FALSE,FALSE,-0.05308195206619571,-0.5828934367315398
PKO,HONNA RIVER,940-103900-00000-00000-0000-0000-000-000-000-000-000-000,2,PKO-9,1957,0,47.632,3.8635048042734206,25,3.2188758248682006,25.5071068681674,68.8571114543653,1.020284274726696,0.020081289178797673,0.0012,0.0012,0.006,0.17012,0.133327,CWH,-0.3276691034772351,0,FALSE,FALSE,-0.05308195206619571,-0.5828934367315398
PKO,HONNA RIVER,940-103900-00000-00000-0000-0000-000-000-000-000-000-000,2,PKO-9,1973,0,47.632,3.8635048042734206,200,5.298317366548036,236.061017405871,201.113650549713,1.180305087029355,0.16577295338967576,0.2352,0.2371,0.006,0.17012,0.133327,CWH,-0.20355231452664888,0,FALSE,FALSE,-0.05308195206619571,2.5213340060244653
PKO,HONNA RIVER,940-103900-00000-00000-0000-0000-000-000-000-000-000-000,2,PKO-9,1975,1470303.46799372,47.632,3.8635048042734206,200,5.298317366548036,182.105208542945,236.061017405871,0.910526042714725,-0.09373277757143565,0.2557,0.2578,0.006,0.17012,0.133327,CWH,1.2286162579398736,0,FALSE,FALSE,-0.05308195206619571,2.7937270033328554
PKO,HONNA RIVER,940-103900-00000-00000-0000-0000-000-000-000-000-000-000,2,PKO-9,1977,79561.8199848916,47.632,3.8635048042734206,150,5.0106352940962555,50,182.105208542945,0.3333333333333333,-1.0986122886681098,0.2358,0.2378,0.006,0.17012,0.133327,CWH,0.9724829797884954,0,FALSE,FALSE,-0.05308195206619571,2.5305453634213673