Species,River,WATERSHED_CDE,DFO,CU,BroodYear,hararea_m2_3005,area_km2,ln_area_km2,Spawners,logS,Recruits,Returns,recruitPerSpawner,ln_RS,ECA_age_proxy,ECA_age_proxy_forested_only,lake_cover_pct,var_eaubc_KFACTOR,var_eaubc_MELTONS_R,vri_bec_zone,npgo,portion_reporting_vri_cover1_missing,hatchery_enhancement,year_of_enhacement,ln_area_km2_std,ECA_age_proxy_forested_only_std
PKO,KSI X'ANMAS,910-896600-00000-00000-0000-0000-000-000-000-000-000-000,3,PKO-17,1965,0,321.135,5.771861595466795,75000,11.225243392518447,29725.5399735799,135416.126281092,0.3963405329810653,-0.9254815054867828,0.0044,0.0086,0.01,0.22757,0.123045,CWH,-0.7093794641235007,2.2334328895148e-4,FALSE,FALSE,1.284303474568007,-0.4855162299642891
PKO,KSI X'ANMAS,910-896600-00000-00000-0000-0000-000-000-000-000-000-000,3,PKO-17,1967,0,321.135,5.771861595466795,13000,9.472704636443673,20602.5908966738,29725.5399735799,1.584814684359523,0.4604674821085977,0.0044,0.0086,0.01,0.22757,0.123045,CWH,-0.48089809283299456,2.2334328895148e-4,FALSE,FALSE,1.284303474568007,-0.4855162299642891
PKO,KSI X'ANMAS,910-896600-00000-00000-0000-0000-000-000-000-000-000-000,3,PKO-17,1969,0,321.135,5.771861595466795,12000,9.392661928770137,53935.9770798356,20602.5908966738,4.494664756652966,1.5028910837524796,0.004,0.0078,0.01,0.22757,0.123045,CWH,0.09673401232408343,2.2334328895148e-4,FALSE,FALSE,1.284303474568007,-0.49604349556074867
PKO,KSI X'ANMAS,910-896600-00000-00000-0000-0000-000-000-000-000-000-000,3,PKO-17,1971,1262553.27199258,321.135,5.771861595466795,35000,10.46310334047155,37517.9121876382,53935.9770798356,1.0719403482182341,0.06947041578154062,0.008,0.0154,0.01,0.22757,0.123045,CWH,-0.34080392906905344,2.2334328895148e-4,FALSE,FALSE,1.284303474568007,-0.3960344723943831
PKO,KSI X'ANMAS,910-896600-00000-00000-0000-0000-000-000-000-000-000-000,3,PKO-17,1973,368875.129512144,321.135,5.771861595466795,26000,10.165851817003619,69919.5582334641,37517.9121876382,2.6892137782101573,0.9892488751345581,0.0091,0.0175,0.01,0.22757,0.123045,CWH,-0.20355231452664888,2.2334328895148e-4,FALSE,FALSE,1.284303474568007,-0.3684004002036768
PKO,KSI X'ANMAS,910-896600-00000-00000-0000-0000-000-000-000-000-000-000,3,PKO-17,1975,0,321.135,5.771861595466795,50000,10.819778284410283,114174.128973562,69919.5582334641,2.2834825794712397,0.8257017247420144,0.0084,0.0161,0.01,0.22757,0.123045,CWH,1.2286162579398736,2.2334328895148e-4,FALSE,FALSE,1.284303474568007,-0.386823114997481
PKO,KSI X'ANMAS,910-896600-00000-00000-0000-0000-000-000-000-000-000-000,3,PKO-17,1977,102116.149603945,321.135,5.771861595466795,50000,10.819778284410283,33234.9168236301,114174.128973562,0.6646983364726019,-0.408421970611718,0.0087,0.0168,0.01,0.22757,0.123045,CWH,0.9724829797884954,2.2334328895148e-4,FALSE,FALSE,1.284303474568007,-0.37761175760057897
PKO,KSI X'ANMAS,910-896600-00000-00000-0000-0000-000-000-000-000-000-000,3,PKO-17,1979,0,321.135,5.771861595466795,20000,9.903487552536127,107886.424831873,33234.9168236301,5.39432124159365,1.685346778300816,0.0087,0.0168,0.01,0.22757,0.123045,CWH,-1.19975713829789,2.2334328895148e-4,FALSE,FALSE,1.284303474568007,-0.37761175760057897
PKO,KSI X'ANMAS,910-896600-00000-00000-0000-0000-000-000-000-000-000-000,3,PKO-17,1981,0,321.135,5.771861595466795,60000,11.002099841204238,264916.303717257,107886.424831873,4.41527172862095,1.4850693788485156,0.0088,0.017,0.01,0.22757,0.123045,CWH,-0.22613906119882837,2.2334328895148e-4,FALSE,FALSE,1.284303474568007,-0.37497994120146405
PKO,KSI X'ANMAS,910-896600-00000-00000-0000-0000-000-000-000-000-000-000,3,PKO-17,1983,0,321.135,5.771861595466795,80000,11.289781913656018,307724.799012471,264916.303717257,3.8465599876558874,1.3471792391821915,0.0078,0.0151,0.01,0.22757,0.123045,CWH,0.10267616261581472,2.2334328895148e-4,FALSE,FALSE,1.284303474568007,-0.39998219699305543
PKO,KSI X'ANMAS,910-896600-00000-00000-0000-0000-000-000-000-000-000-000,3,PKO-17,1985,88028.2079868358,321.135,5.771861595466795,150000,11.918390573078392,179444.355264338,307724.799012471,1.1962957017622533,0.1792298672452369,0.0067,0.0128,0.01,0.22757,0.123045,CWH,-0.9758993397997916,2.2334328895148e-4,FALSE,FALSE,1.284303474568007,-0.43024808558287664
PKO,KSI X'ANMAS,910-896600-00000-00000-0000-0000-000-000-000-000-000-000,3,PKO-17,1987,0,321.135,5.771861595466795,80000,11.289781913656018,478620.136614556,179444.355264338,5.98275170768195,1.7888806139114526,0.0066,0.0128,0.01,0.22757,0.123045,CWH,0.8862048812919091,2.2334328895148e-4,FALSE,FALSE,1.284303474568007,-0.43024808558287664
PKO,KSI X'ANMAS,910-896600-00000-00000-0000-0000-000-000-000-000-000-000,3,PKO-17,1989,172904.28885915,321.135,5.771861595466795,200000,12.206072645530174,519166.880654276,478620.136614556,2.59583440327138,0.9539080076205473,0.0069,0.0134,0.01,0.22757,0.123045,CWH,0.15947767939610902,2.2334328895148e-4,FALSE,FALSE,1.284303474568007,-0.42235263638553194
PKO,KSI X'ANMAS,910-896600-00000-00000-0000-0000-000-000-000-000-000-000,3,PKO-17,1991,171.614543036601,321.135,5.771861595466795,100000,11.512925464970229,387936.530389617,519166.880654276,3.8793653038961704,1.355671558784215,0.0069,0.0133,0.01,0.22757,0.123045,CWH,-0.18487911555035336,2.2334328895148e-4,FALSE,FALSE,1.284303474568007,-0.4236685445850894
PKO,KSI X'ANMAS,910-896600-00000-00000-0000-0000-000-000-000-000-000-000,3,PKO-17,1993,0,321.135,5.771861595466795,120000,11.695247021764184,375533.286370476,387936.530389617,3.1294440530873002,1.140855369954022,0.0083,0.0159,0.01,0.22757,0.123045,CWH,-1.7567819796155162,2.2334328895148e-4,FALSE,FALSE,1.284303474568007,-0.3894549313965959
PKO,KSI X'ANMAS,910-896600-00000-00000-0000-0000-000-000-000-000-000-000,3,PKO-17,1995,0,321.135,5.771861595466795,150000,11.918390573078392,103727.676552791,375533.286370476,0.6915178436852734,-0.36886632389315166,0.0064,0.0122,0.01,0.22757,0.123045,CWH,-0.5672147431639023,2.2334328895148e-4,FALSE,FALSE,1.284303474568007,-0.4381435347802212
PKO,KSI X'ANMAS,910-896600-00000-00000-0000-0000-000-000-000-000-000-000,3,PKO-17,1997,0,321.135,5.771861595466795,60000,11.002099841204238,392278.781964967,103727.676552791,6.537979699416117,1.8776282032828386,0.0063,0.0121,0.01,0.22757,0.123045,CWH,0.8907774948170872,2.2334328895148e-4,FALSE,FALSE,1.284303474568007,-0.4394594429797787
PKO,KSI X'ANMAS,910-896600-00000-00000-0000-0000-000-000-000-000-000-000,3,PKO-17,1999,0,321.135,5.771861595466795,150000,11.918390573078392,177163.26684523,392278.781964967,1.1810884456348667,0.16643642487243512,0.0061,0.0117,0.01,0.22757,0.123045,CWH,1.6302835492491898,2.2334328895148e-4,FALSE,FALSE,1.284303474568007,-0.44472307577800846
PKO,KSI X'ANMAS,910-896600-00000-00000-0000-0000-000-000-000-000-000-000,3,PKO-17,2001,0,321.135,5.771861595466795,125000,11.736069016284437,139404.454773348,177163.26684523,1.115235638186784,0.10906571728071814,0.0059,0.0113,0.01,0.22757,0.123045,CWH,1.9190067210816288,2.2334328895148e-4,FALSE,FALSE,1.284303474568007,-0.4499867085762383
PKO,KSI X'ANMAS,910-896600-00000-00000-0000-0000-000-000-000-000-000-000,3,PKO-17,2003,0,321.135,5.771861595466795,100000,11.512925464970229,395347.180027596,139404.454773348,3.95347180027596,1.37459412965301,0.005,0.0097,0.01,0.22757,0.123045,CWH,0.41101277747559006,2.2334328895148e-4,FALSE,FALSE,1.284303474568007,-0.4710412397691573
PKO,KSI X'ANMAS,910-896600-00000-00000-0000-0000-000-000-000-000-000-000,3,PKO-17,2005,0,321.135,5.771861595466795,275000,12.524526376648708,184909.668290626,395347.180027596,0.6723987937840945,-0.3969036713456352,0.005,0.0096,0.01,0.22757,0.123045,CWH,-0.8145696192436794,2.2334328895148e-4,FALSE,FALSE,1.284303474568007,-0.47235714796871475
PKO,KSI X'ANMAS,910-896600-00000-00000-0000-0000-000-000-000-000-000-000,3,PKO-17,2007,0,321.135,5.771861595466795,115000,11.652687407345388,214011.582645704,184909.668290626,1.860970283875687,0.6210980097065584,0.0048,0.0093,0.01,0.22757,0.123045,CWH,0.8768892458318005,2.2334328895148e-4,FALSE,FALSE,1.284303474568007,-0.4763048725673871
PKO,KSI X'ANMAS,910-896600-00000-00000-0000-0000-000-000-000-000-000-000,3,PKO-17,2009,0,321.135,5.771861595466795,168000,12.031719258385396,27750.5743751888,214011.582645704,0.16518199032850475,-1.8007074412200186,0.0048,0.0093,0.01,0.22757,0.123045,CWH,1.604652193542091,2.2334328895148e-4,FALSE,FALSE,1.284303474568007,-0.4763048725673871
PKO,KSI X'ANMAS,910-896600-00000-00000-0000-0000-000-000-000-000-000-000,3,PKO-17,2011,0,321.135,5.771861595466795,23500,10.06475570013225,163619.370426041,27750.5743751888,6.962526401108127,1.9405423971468418,0.0046,0.0088,0.01,0.22757,0.123045,CWH,0.7408851700104637,2.2334328895148e-4,FALSE,FALSE,1.284303474568007,-0.48288441356517425
PKO,KSI X'ANMAS,910-896600-00000-00000-0000-0000-000-000-000-000-000-000,3,PKO-17,2013,0,321.135,5.771861595466795,130000,11.77528972943772,104106.261448452,163619.370426041,0.8008173957573231,-0.22212232824338635,0.0021,0.0041,0.01,0.22757,0.123045,CWH,-0.5528640906240193,2.2334328895148e-4,FALSE,FALSE,1.284303474568007,-0.544732098944374
PKO,STAGOO CREEK,910-919700-00000-00000-0000-0000-000-000-000-000-000-000,3,PKO-17,1955,0,171.798,5.146319368038854,75,4.31748811353631,52.7318349322294,133.779369925103,0.7030911324297253,-0.3522687619604868,0.0073,0.0157,0.005,0.20171,0.244612,CWH,-0.07106879047729574,0,FALSE,FALSE,0.8459205356086356,-0.39208674779571084
PKO,STAGOO CREEK,910-919700-00000-00000-0000-0000-000-000-000-000-000-000,3,PKO-17,1957,0,171.798,5.146319368038854,25,3.2188758248682006,2636.11244568209,52.7318349322294,105.4444978272836,4.658184727538651,0.0073,0.0157,0.005,0.20171,0.244612,CWH,-0.3276691034772351,0,FALSE,FALSE,0.8459205356086356,-0.39208674779571084
PKO,STAGOO CREEK,910-919700-00000-00000-0000-0000-000-000-000-000-000-000,3,PKO-17,1965,0,171.798,5.146319368038854,1500,7.313220387090301,6859.73999390306,2708.32252562183,4.573159995935374,1.5202044311479372,0.0037,0.0081,0.005,0.20171,0.244612,CWH,-0.7093794641235007,0,FALSE,FALSE,0.8459205356086356,-0.49209577096207635
PKO,STAGOO CREEK,910-919700-00000-00000-0000-0000-000-000-000-000-000-000,3,PKO-17,1967,0,171.798,5.146319368038854,3000,8.006367567650246,2060.25908966738,6859.73999390306,0.6867530298891267,-0.37578054209202083,0.0037,0.0081,0.005,0.20171,0.244612,CWH,-0.48089809283299456,0,FALSE,FALSE,0.8459205356086356,-0.49209577096207635
PKO,STAGOO CREEK,910-919700-00000-00000-0000-0000-000-000-000-000-000-000,3,PKO-17,1969,0,171.798,5.146319368038854,1200,7.090076835776092,9246.1674994004,2060.25908966738,7.7051395828336675,2.041887584485168,0.0037,0.0081,0.005,0.20171,0.244612,CWH,0.09673401232408343,0,FALSE,FALSE,0.8459205356086356,-0.49209577096207635
PKO,STAGOO CREEK,910-919700-00000-00000-0000-0000-000-000-000-000-000-000,3,PKO-17,1971,0,171.798,5.146319368038854,6000,8.699514748210191,1082.2474669511,9246.1674994004,0.18037457782518335,-1.7127196024303653,0.0034,0.0072,0.005,0.20171,0.244612,CWH,-0.34080392906905344,0,FALSE,FALSE,0.8459205356086356,-0.5039389447580934
PKO,STAGOO CREEK,910-919700-00000-00000-0000-0000-000-000-000-000-000-000,3,PKO-17,1973,0,171.798,5.146319368038854,750,6.620073206530356,2796.78232933856,1082.2474669511,3.7290431057847466,1.316151660739619,0.0034,0.0072,0.005,0.20171,0.244612,CWH,-0.20355231452664888,0,FALSE,FALSE,0.8459205356086356,-0.5039389447580934
PKO,STAGOO CREEK,910-919700-00000-00000-0000-0000-000-000-000-000-000-000,3,PKO-17,1975,0,171.798,5.146319368038854,2000,7.600902459542082,22834.8257947125,2796.78232933856,11.417412897356249,2.4351396371761194,0.0017,0.0036,0.005,0.20171,0.244612,CWH,1.2286162579398736,0,FALSE,FALSE,0.8459205356086356,-0.5513116399421613
PKO,STAGOO CREEK,910-919700-00000-00000-0000-0000-000-000-000-000-000-000,3,PKO-17,1977,0,171.798,5.146319368038854,10000,9.210340371976184,664.698336472601,22834.8257947125,0.0664698336472601,-2.711007063605765,0.0017,0.0036,0.005,0.20171,0.244612,CWH,0.9724829797884954,0,FALSE,FALSE,0.8459205356086356,-0.5513116399421613
PKO,STAGOO CREEK,910-919700-00000-00000-0000-0000-000-000-000-000-000-000,3,PKO-17,1979,0,171.798,5.146319368038854,400,5.991464547107982,899.05354026561,664.698336472601,2.247633850664025,0.8098780409469181,0.0017,0.0036,0.005,0.20171,0.244612,CWH,-1.19975713829789,0,FALSE,FALSE,0.8459205356086356,-0.5513116399421613
PKO,STAGOO CREEK,910-919700-00000-00000-0000-0000-000-000-000-000-000-000,3,PKO-17,1981,0,171.798,5.146319368038854,500,6.214608098422191,13245.8151858628,899.05354026561,26.491630371725602,3.276828848076567,0.0017,0.0036,0.005,0.20171,0.244612,CWH,-0.22613906119882837,0,FALSE,FALSE,0.8459205356086356,-0.5513116399421613
PKO,STAGOO CREEK,910-919700-00000-00000-0000-0000-000-000-000-000-000-000,3,PKO-17,1983,0,171.798,5.146319368038854,4000,8.294049640102028,41029.9732016628,13245.8151858628,10.2574933004157,2.3280084921939177,0.0017,0.0036,0.005,0.20171,0.244612,CWH,0.10267616261581472,0,FALSE,FALSE,0.8459205356086356,-0.5513116399421613
PKO,STAGOO CREEK,910-919700-00000-00000-0000-0000-000-000-000-000-000-000,3,PKO-17,1985,0,171.798,5.146319368038854,20000,9.903487552536127,44861.0888160846,41029.9732016628,2.24305444080423,0.8078385266676132,0.0011,0.0024,0.005,0.20171,0.244612,CWH,-0.9758993397997916,0,FALSE,FALSE,0.8459205356086356,-0.5671025383368505
PKO,STAGOO CREEK,910-919700-00000-00000-0000-0000-000-000-000-000-000-000,3,PKO-17,1987,0,171.798,5.146319368038854,20000,9.903487552536127,31110.3088799461,44861.0888160846,1.555515443997305,0.44180696594484203,0.0011,0.0024,0.005,0.20171,0.244612,CWH,0.8862048812919091,0,FALSE,FALSE,0.8459205356086356,-0.5671025383368505
PKO,STAGOO CREEK,910-919700-00000-00000-0000-0000-000-000-000-000-000-000,3,PKO-17,1989,0,171.798,5.146319368038854,13000,9.472704636443673,20766.675226171,31110.3088799461,1.5974365558593075,0.4684001918388445,0.0011,0.0024,0.005,0.20171,0.244612,CWH,0.15947767939610902,0,FALSE,FALSE,0.8459205356086356,-0.5671025383368505
PKO,STAGOO CREEK,910-919700-00000-00000-0000-0000-000-000-000-000-000-000,3,PKO-17,1991,0,171.798,5.146319368038854,4000,8.294049640102028,6465.60883982696,20766.675226171,1.61640220995674,0.48020282143031656,9e-4,0.002,0.005,0.20171,0.244612,CWH,-0.18487911555035336,0,FALSE,FALSE,0.8459205356086356,-0.5723661711350803
PKO,STAGOO CREEK,910-919700-00000-00000-0000-0000-000-000-000-000-000-000,3,PKO-17,1993,0,171.798,5.146319368038854,2000,7.600902459542082,1251.77762123492,6465.60883982696,0.6258888106174599,-0.4685825424800786,9e-4,0.002,0.005,0.20171,0.244612,CWH,-1.7567819796155162,0,FALSE,FALSE,0.8459205356086356,-0.5723661711350803
PKO,STAGOO CREEK,910-919700-00000-00000-0000-0000-000-000-000-000-000-000,3,PKO-17,1995,0,171.798,5.146319368038854,500,6.214608098422191,1728.79460921318,1251.77762123492,3.4575892184263597,1.2405715885409467,3e-4,6e-4,0.005,0.20171,0.244612,CWH,-0.5672147431639023,0,FALSE,FALSE,0.8459205356086356,-0.5907888859288845
PKO,STAGOO CREEK,910-919700-00000-00000-0000-0000-000-000-000-000-000-000,3,PKO-17,1997,0,171.798,5.146319368038854,1000,6.907755278982137,10460.7675190658,1728.79460921318,10.460767519065799,2.347631832528575,3e-4,6e-4,0.005,0.20171,0.244612,CWH,0.8907774948170872,0,FALSE,FALSE,0.8459205356086356,-0.5907888859288845
PKO,STAGOO CREEK,910-919700-00000-00000-0000-0000-000-000-000-000-000-000,3,PKO-17,1999,0,171.798,5.146319368038854,4000,8.294049640102028,21259.5920214276,10460.7675190658,5.3148980053569,1.6705138216487092,3e-4,6e-4,0.005,0.20171,0.244612,CWH,1.6302835492491898,0,FALSE,FALSE,0.8459205356086356,-0.5907888859288845
PKO,STAGOO CREEK,910-919700-00000-00000-0000-0000-000-000-000-000-000-000,3,PKO-17,2001,0,171.798,5.146319368038854,15000,9.615805480084347,32063.02459787,21259.5920214276,2.1375349731913333,0.7596532834218662,2e-4,5e-4,0.005,0.20171,0.244612,CWH,1.9190067210816288,0,FALSE,FALSE,0.8459205356086356,-0.592104794128442
PKO,STAGOO CREEK,910-919700-00000-00000-0000-0000-000-000-000-000-000-000,3,PKO-17,2003,0,171.798,5.146319368038854,23000,10.043249494911286,22283.2046924645,32063.02459787,0.9688349866288913,-0.0316609740294188,2e-4,5e-4,0.005,0.20171,0.244612,CWH,0.41101277747559006,0,FALSE,FALSE,0.8459205356086356,-0.592104794128442
PKO,STAGOO CREEK,910-919700-00000-00000-0000-0000-000-000-000-000-000-000,3,PKO-17,2005,0,171.798,5.146319368038854,15500,9.648595302907339,24922.6074652583,22283.2046924645,1.6079101590489226,0.4749352979576867,2e-4,4e-4,0.005,0.20171,0.244612,CWH,-0.8145696192436794,0,FALSE,FALSE,0.8459205356086356,-0.5934207023279994
PKO,STAGOO CREEK,910-919700-00000-00000-0000-0000-000-000-000-000-000-000,3,PKO-17,2007,0,171.798,5.146319368038854,15500,9.648595302907339,12611.396834479,24922.6074652583,0.8136385054502581,-0.20623910811810608,2e-4,4e-4,0.005,0.20171,0.244612,CWH,0.8768892458318005,0,FALSE,FALSE,0.8459205356086356,-0.5934207023279994
PKO,STAGOO CREEK,910-919700-00000-00000-0000-0000-000-000-000-000-000-000,3,PKO-17,2009,0,171.798,5.146319368038854,9900,9.20029003612268,1535.13815692534,12611.396834479,0.15506446029548887,-1.8639143756399248,2e-4,4e-4,0.005,0.20171,0.244612,CWH,1.604652193542091,0,FALSE,FALSE,0.8459205356086356,-0.5934207023279994
PKO,STAGOO CREEK,910-919700-00000-00000-0000-0000-000-000-000-000-000-000,3,PKO-17,2011,0,171.798,5.146319368038854,1300,7.170119543449628,25172.2108347755,1535.13815692534,19.36323910367346,2.9633763769278714,2e-4,4e-4,0.005,0.20171,0.244612,CWH,0.7408851700104637,0,FALSE,FALSE,0.8459205356086356,-0.5934207023279994
PKO,STAGOO CREEK,910-919700-00000-00000-0000-0000-000-000-000-000-000-000,3,PKO-17,2013,0,171.798,5.146319368038854,20000,9.903487552536127,635.048194835555,25172.2108347755,0.03175240974177775,-3.44978665914467,2e-4,4e-4,0.005,0.20171,0.244612,CWH,-0.5528640906240193,0,FALSE,FALSE,0.8459205356086356,-0.5934207023279994
PKO,ILLIANCE RIVER,910-929800-00000-00000-0000-0000-000-000-000-000-000-000,3,PKO-17,1977,0,127.426,4.847535803948893,1000,6.907755278982137,332.3491682363,2283.48257947125,0.3323491682363,-1.101569151171666,0.0024,0.0055,0.011,-1.25551,0.208073,MH,0.9724829797884954,0,FALSE,FALSE,0.6365316067795248,-0.5263093841505698
PKO,ILLIANCE RIVER,910-929800-00000-00000-0000-0000-000-000-000-000-000-000,3,PKO-17,1983,0,127.426,4.847535803948893,50,3.912023005428146,2051.49866008314,165.572689823286,41.0299732016628,3.714302853313808,0.0024,0.0055,0.011,-1.25551,0.208073,MH,0.10267616261581472,0,FALSE,FALSE,0.6365316067795248,-0.5263093841505698
PKO,ILLIANCE RIVER,910-929800-00000-00000-0000-0000-000-000-000-000-000-000,3,PKO-17,1985,0,127.426,4.847535803948893,1000,6.907755278982137,8972.21776321692,2051.49866008314,8.972217763216921,2.194132887787504,0.0022,0.0052,0.011,-1.25551,0.208073,MH,-0.9758993397997916,0,FALSE,FALSE,0.6365316067795248,-0.5302571087492421
PKO,ILLIANCE RIVER,910-929800-00000-00000-0000-0000-000-000-000-000-000-000,3,PKO-17,1987,0,127.426,4.847535803948893,4000,8.294049640102028,9572.40273229112,8972.21776321692,2.39310068307278,0.8725898820372977,0.0022,0.0052,0.011,-1.25551,0.208073,MH,0.8862048812919091,0,FALSE,FALSE,0.6365316067795248,-0.5302571087492421
PKO,ILLIANCE RIVER,910-929800-00000-00000-0000-0000-000-000-000-000-000-000,3,PKO-17,1989,0,127.426,4.847535803948893,4000,8.294049640102028,25958.3440327138,9572.40273229112,6.48958600817845,1.8701987394947024,0.0022,0.0052,0.011,-1.25551,0.208073,MH,0.15947767939610902,0,FALSE,FALSE,0.6365316067795248,-0.5302571087492421
PKO,ILLIANCE RIVER,910-929800-00000-00000-0000-0000-000-000-000-000-000-000,3,PKO-17,1991,0,127.426,4.847535803948893,5000,8.517193191416238,3232.80441991348,25958.3440327138,0.6465608839826961,-0.4360879104438385,0.0022,0.0052,0.011,-1.25551,0.208073,MH,-0.18487911555035336,0,FALSE,FALSE,0.6365316067795248,-0.5302571087492421
PKO,ILLIANCE RIVER,910-929800-00000-00000-0000-0000-000-000-000-000-000-000,3,PKO-17,1993,0,127.426,4.847535803948893,1000,6.907755278982137,1251.77762123492,3232.80441991348,1.2517776212349199,0.22456463807986674,0.0022,0.0052,0.011,-1.25551,0.208073,MH,-1.7567819796155162,0,FALSE,FALSE,0.6365316067795248,-0.5302571087492421