Species,River,WATERSHED_CDE,DFO,CU,BroodYear,hararea_m2_3005,area_km2,ln_area_km2,Spawners,logS,Recruits,Returns,recruitPerSpawner,ln_RS,ECA_age_proxy,ECA_age_proxy_forested_only,lake_cover_pct,var_eaubc_KFACTOR,var_eaubc_MELTONS_R,vri_bec_zone,npgo,portion_reporting_vri_cover1_missing,hatchery_enhancement,year_of_enhacement,ln_area_km2_std,ECA_age_proxy_forested_only_std
PKO,MCNICHOL CREEK,910-807900-00000-00000-0000-0000-000-000-000-000-000-000,4,PKO-14,1977,0,26.295,3.2693788070413077,200,5.298317366548036,124.630938088613,456.696515894249,0.6231546904430649,-0.4729604917492881,0,0,0.001,0.22461,0.178215,CWH,0.9724829797884954,0,FALSE,FALSE,-0.46944824895025977,-0.5986843351262291
PKO,MCNICHOL CREEK,910-807900-00000-00000-0000-0000-000-000-000-000-000-000,4,PKO-14,1979,0,26.295,3.2693788070413077,75,4.31748811353631,719.242832212488,124.630938088613,9.58990442949984,2.26071092320438,0,0,0.001,0.22461,0.178215,CWH,-1.19975713829789,0,FALSE,FALSE,-0.46944824895025977,-0.5986843351262291
PKO,MCNICHOL CREEK,910-807900-00000-00000-0000-0000-000-000-000-000-000-000,4,PKO-14,1981,0,26.295,3.2693788070413077,400,5.991464547107982,3311.45379646571,719.242832212488,8.278634491164276,2.1136780382708893,0,0,0.001,0.22461,0.178215,CWH,-0.22613906119882837,0,FALSE,FALSE,-0.46944824895025977,-0.5986843351262291
PKO,MCNICHOL CREEK,910-807900-00000-00000-0000-0000-000-000-000-000-000-000,4,PKO-14,1983,0,26.295,3.2693788070413077,1000,6.907755278982137,4102.99732016628,3311.45379646571,4.1029973201662795,1.4117177603197626,0,0,0.001,0.22461,0.178215,CWH,0.10267616261581472,0,FALSE,FALSE,-0.46944824895025977,-0.5986843351262291
PKO,MCNICHOL CREEK,910-807900-00000-00000-0000-0000-000-000-000-000-000-000,4,PKO-14,1985,0,26.295,3.2693788070413077,2000,7.600902459542082,3364.58166120634,4102.99732016628,1.68229083060317,0.5201564542158309,0,0,0.001,0.22461,0.178215,CWH,-0.9758993397997916,0,FALSE,FALSE,-0.46944824895025977,-0.5986843351262291
PKO,MCNICHOL CREEK,910-807900-00000-00000-0000-0000-000-000-000-000-000-000,4,PKO-14,1987,0,26.295,3.2693788070413077,1500,7.313220387090301,3589.65102460917,3364.58166120634,2.3931006830727797,0.8725898820372975,0,0,0.001,0.22461,0.178215,CWH,0.8862048812919091,0,FALSE,FALSE,-0.46944824895025977,-0.5986843351262291
PKO,MCNICHOL CREEK,910-807900-00000-00000-0000-0000-000-000-000-000-000-000,4,PKO-14,1989,0,26.295,3.2693788070413077,1500,7.313220387090301,7787.50320981413,3589.65102460917,5.191668806542753,1.6470551881804913,0,0,0.001,0.22461,0.178215,CWH,0.15947767939610902,0,FALSE,FALSE,-0.46944824895025977,-0.5986843351262291
PKO,MCNICHOL CREEK,910-807900-00000-00000-0000-0000-000-000-000-000-000-000,4,PKO-14,1991,0,26.295,3.2693788070413077,1500,7.313220387090301,6465.60883982696,7787.50320981413,4.310405893217974,1.4610320744420429,0,0,0.001,0.22461,0.178215,CWH,-0.18487911555035336,0,FALSE,FALSE,-0.46944824895025977,-0.5986843351262291
PKO,MCNICHOL CREEK,910-807900-00000-00000-0000-0000-000-000-000-000-000-000,4,PKO-14,1993,0,26.295,3.2693788070413077,2000,7.600902459542082,7510.66572740952,6465.60883982696,3.75533286370476,1.3231769267479765,0,0,0.001,0.22461,0.178215,CWH,-1.7567819796155162,0,FALSE,FALSE,-0.46944824895025977,-0.5986843351262291
PKO,LA HOU CREEK,910-825400-00000-00000-0000-0000-000-000-000-000-000-000,4,PKO-14,1955,0,17.016,2.834154077897936,7500,8.922658299524402,421.854679457835,13377.9369925103,0.056247290594378004,-2.877997406268743,0,0,0.001,0.22806,0.136354,CWH,-0.07106879047729574,0,FALSE,FALSE,-0.7744557888155778,-0.5986843351262291
PKO,LA HOU CREEK,910-825400-00000-00000-0000-0000-000-000-000-000-000-000,4,PKO-14,1957,0,17.016,2.834154077897936,200,5.298317366548036,6150.92903992488,421.854679457835,30.754645199624402,3.4260410462460196,0,0,0.001,0.22806,0.136354,CWH,-0.3276691034772351,0,FALSE,FALSE,-0.7744557888155778,-0.5986843351262291
PKO,LA HOU CREEK,910-825400-00000-00000-0000-0000-000-000-000-000-000-000,4,PKO-14,1959,0,17.016,2.834154077897936,3500,8.160518247477505,12556.718761429,6150.92903992488,3.587633931836857,1.2774929133050805,0,0,0.001,0.22806,0.136354,CWH,0.7824977620566573,0,FALSE,FALSE,-0.7744557888155778,-0.5986843351262291
PKO,LA HOU CREEK,910-825400-00000-00000-0000-0000-000-000-000-000-000-000,4,PKO-14,1961,0,17.016,2.834154077897936,7500,8.922658299524402,4502.36738078776,12556.718761429,0.6003156507717013,-0.5102996774804871,0,0,0.001,0.22806,0.136354,CWH,0.00583928468743269,0,FALSE,FALSE,-0.7744557888155778,-0.5986843351262291
PKO,LA HOU CREEK,910-825400-00000-00000-0000-0000-000-000-000-000-000-000,4,PKO-14,1963,0,17.016,2.834154077897936,3500,8.160518247477505,13541.6126281092,4502.36738078776,3.8690321794597713,1.3530043929388333,0,0,0.001,0.22806,0.136354,CWH,0.5797944041154652,0,FALSE,FALSE,-0.7744557888155778,-0.5986843351262291
PKO,LA HOU CREEK,910-825400-00000-00000-0000-0000-000-000-000-000-000-000,4,PKO-14,1965,0,17.016,2.834154077897936,7500,8.922658299524402,8003.02999288691,13541.6126281092,1.0670706657182547,0.06491719854109596,0,0,0.001,0.22806,0.136354,CWH,-0.7093794641235007,0,FALSE,FALSE,-0.7744557888155778,-0.5986843351262291
PKO,LA HOU CREEK,910-825400-00000-00000-0000-0000-000-000-000-000-000-000,4,PKO-14,1967,0,17.016,2.834154077897936,3500,8.160518247477505,6009.08901152986,8003.02999288691,1.7168825747228171,0.5405101897821345,0,0,0.001,0.22806,0.136354,CWH,-0.48089809283299456,0,FALSE,FALSE,-0.7744557888155778,-0.5986843351262291
PKO,LA HOU CREEK,910-825400-00000-00000-0000-0000-000-000-000-000-000-000,4,PKO-14,1969,0,17.016,2.834154077897936,3500,8.160518247477505,13869.2512491006,6009.08901152986,3.962643214028743,1.376911280891919,0,0,0.001,0.22806,0.136354,CWH,0.09673401232408343,0,FALSE,FALSE,-0.7744557888155778,-0.5986843351262291
PKO,LA HOU CREEK,910-825400-00000-00000-0000-0000-000-000-000-000-000-000,4,PKO-14,1971,0,17.016,2.834154077897936,9000,9.104979856318357,4617.5891923247,13869.2512491006,0.5130654658138556,-0.6673518282810664,0,0,0.001,0.22806,0.136354,CWH,-0.34080392906905344,0,FALSE,FALSE,-0.7744557888155778,-0.5986843351262291
PKO,LA HOU CREEK,910-825400-00000-00000-0000-0000-000-000-000-000-000-000,4,PKO-14,1973,0,17.016,2.834154077897936,3200,8.070906088787819,8390.34698801569,4617.5891923247,2.6219834337549033,0.9639310671502681,0,0,0.001,0.22806,0.136354,CWH,-0.20355231452664888,0,FALSE,FALSE,-0.7744557888155778,-0.5986843351262291
PKO,LA HOU CREEK,910-825400-00000-00000-0000-0000-000-000-000-000-000-000,4,PKO-14,1975,0,17.016,2.834154077897936,6000,8.699514748210191,15984.3780562987,8390.34698801569,2.6640630093831166,0.979852404569274,0,0,0.001,0.22806,0.136354,CWH,1.2286162579398736,0,FALSE,FALSE,-0.7744557888155778,-0.5986843351262291
PKO,LA HOU CREEK,910-825400-00000-00000-0000-0000-000-000-000-000-000-000,4,PKO-14,1977,0,17.016,2.834154077897936,7000,8.85366542803745,2492.61876177225,15984.3780562987,0.35608839453889285,-1.0325762796847147,0,0,0.001,0.22806,0.136354,CWH,0.9724829797884954,0,FALSE,FALSE,-0.7744557888155778,-0.5986843351262291
PKO,LA HOU CREEK,910-825400-00000-00000-0000-0000-000-000-000-000-000-000,4,PKO-14,1979,0,17.016,2.834154077897936,1500,7.313220387090301,6293.37478185927,2492.61876177225,4.1955831879061805,1.434032350019912,0,0,0.001,0.22806,0.136354,CWH,-1.19975713829789,0,FALSE,FALSE,-0.7744557888155778,-0.5986843351262291
PKO,LA HOU CREEK,910-825400-00000-00000-0000-0000-000-000-000-000-000-000,4,PKO-14,1981,0,17.016,2.834154077897936,3500,8.160518247477505,49671.8069469857,6293.37478185927,14.191944841995914,2.652674539003577,0,0,0.001,0.22806,0.136354,CWH,-0.22613906119882837,0,FALSE,FALSE,-0.7744557888155778,-0.5986843351262291
PKO,LA HOU CREEK,910-825400-00000-00000-0000-0000-000-000-000-000-000-000,4,PKO-14,1983,0,17.016,2.834154077897936,15000,9.615805480084347,43081.4718617459,49671.8069469857,2.8720981241163934,1.0550428163810293,0,0,0.001,0.22806,0.136354,CWH,0.10267616261581472,0,FALSE,FALSE,-0.7744557888155778,-0.5986843351262291
PKO,LA HOU CREEK,910-825400-00000-00000-0000-0000-000-000-000-000-000-000,4,PKO-14,1985,0,17.016,2.834154077897936,21000,9.95227771670556,4486.10888160846,43081.4718617459,0.21362423245754572,-1.5435367304958643,0,0,0.001,0.22806,0.136354,CWH,-0.9758993397997916,0,FALSE,FALSE,-0.7744557888155778,-0.5986843351262291
PKO,LA HOU CREEK,910-825400-00000-00000-0000-0000-000-000-000-000-000-000,4,PKO-14,1987,0,17.016,2.834154077897936,2000,7.600902459542082,167517.047815095,4486.10888160846,83.7585239075475,4.427937943526714,0,0,0.001,0.22806,0.136354,CWH,0.8862048812919091,0,FALSE,FALSE,-0.7744557888155778,-0.5986843351262291
PKO,LA HOU CREEK,910-825400-00000-00000-0000-0000-000-000-000-000-000-000,4,PKO-14,1989,0,17.016,2.834154077897936,70000,11.156250521031495,129791.720163569,167517.047815095,1.8541674309081286,0.6174357709993344,0,0,0.001,0.22806,0.136354,CWH,0.15947767939610902,0,FALSE,FALSE,-0.7744557888155778,-0.5986843351262291
PKO,LA HOU CREEK,910-825400-00000-00000-0000-0000-000-000-000-000-000-000,4,PKO-14,1991,0,17.016,2.834154077897936,25000,10.126631103850338,6465.60883982696,129791.720163569,0.2586243535930784,-1.3523786423179938,0,0,0.001,0.22806,0.136354,CWH,-0.18487911555035336,0,FALSE,FALSE,-0.7744557888155778,-0.5986843351262291
PKO,LA HOU CREEK,910-825400-00000-00000-0000-0000-000-000-000-000-000-000,4,PKO-14,1993,0,17.016,2.834154077897936,2000,7.600902459542082,62588.881061746,6465.60883982696,31.294440530872997,3.4434404629480673,0,0,0.001,0.22806,0.136354,CWH,-1.7567819796155162,0,FALSE,FALSE,-0.7744557888155778,-0.5986843351262291
PKO,LA HOU CREEK,910-825400-00000-00000-0000-0000-000-000-000-000-000-000,4,PKO-14,1995,0,17.016,2.834154077897936,25000,10.126631103850338,4321.98652303295,62588.881061746,0.17287946092131798,-1.7551606850130443,0,0,0.001,0.22806,0.136354,CWH,-0.5672147431639023,0,FALSE,FALSE,-0.7744557888155778,-0.5986843351262291
PKO,LA HOU CREEK,910-825400-00000-00000-0000-0000-000-000-000-000-000-000,4,PKO-14,2001,0,17.016,2.834154077897936,33000,10.404262840448617,36942.1805149372,46771.1024471408,1.1194600156041576,0.11284644012062364,0,0,0.001,0.22806,0.136354,CWH,1.9190067210816288,0,FALSE,FALSE,-0.7744557888155778,-0.5986843351262291
PKO,LA HOU CREEK,910-825400-00000-00000-0000-0000-000-000-000-000-000-000,4,PKO-14,2003,0,17.016,2.834154077897936,26500,10.184900011974314,71881.305459563,36942.1805149372,2.712502092813698,0.9978714904105007,0,0,0.001,0.22806,0.136354,CWH,0.41101277747559006,0,FALSE,FALSE,-0.7744557888155778,-0.5986843351262291
PKO,LA HOU CREEK,910-825400-00000-00000-0000-0000-000-000-000-000-000-000,4,PKO-14,2005,0,17.016,2.834154077897936,50000,10.819778284410283,53061.0352486145,71881.305459563,1.06122070497229,0.059419853996021774,0,0,0.001,0.22806,0.136354,CWH,-0.8145696192436794,0,FALSE,FALSE,-0.7744557888155778,-0.5986843351262291
PKO,LA HOU CREEK,910-825400-00000-00000-0000-0000-000-000-000-000-000-000,4,PKO-14,2007,0,17.016,2.834154077897936,33000,10.404262840448617,31846.9617032298,53061.0352486145,0.9650594455524182,-0.0355655779317288,0,0,0.001,0.22806,0.136354,CWH,0.8768892458318005,0,FALSE,FALSE,-0.7744557888155778,-0.5986843351262291
PKO,LA HOU CREEK,910-825400-00000-00000-0000-0000-000-000-000-000-000-000,4,PKO-14,2009,0,17.016,2.834154077897936,25000,10.126631103850338,2361.75101065437,31846.9617032298,0.0944700404261748,-2.3594725272751265,0,0,0.001,0.22806,0.136354,CWH,1.604652193542091,0,FALSE,FALSE,-0.7744557888155778,-0.5986843351262291
PKO,LA HOU CREEK,910-825400-00000-00000-0000-0000-000-000-000-000-000-000,4,PKO-14,2011,0,17.016,2.834154077897936,2000,7.600902459542082,60413.3060034613,2361.75101065437,30.20665300173065,3.4080621981893184,0,0,0.001,0.22806,0.136354,CWH,0.7408851700104637,0,FALSE,FALSE,-0.7744557888155778,-0.5986843351262291
PKO,BRUNDIGE CREEK,915-823500-51800-00000-0000-0000-000-000-000-000-000-000,3,PKO-14,1981,0,11.412,2.434665433351254,10,2.302585092994046,165.572689823286,17.9810708053122,16.5572689823286,2.8068252188308374,0,0,0.044,0.08341,0.118164,CWH,-0.22613906119882837,0,FALSE,FALSE,-1.054419312297202,-0.5986843351262291
PKO,BRUNDIGE CREEK,915-823500-51800-00000-0000-0000-000-000-000-000-000-000,3,PKO-14,1983,0,11.412,2.434665433351254,50,3.912023005428146,41.0299732016628,165.572689823286,0.820599464033256,-0.19772015211433774,0,0,0.044,0.08341,0.118164,CWH,0.10267616261581472,0,FALSE,FALSE,-1.054419312297202,-0.5986843351262291
PKO,BRUNDIGE CREEK,915-823500-51800-00000-0000-0000-000-000-000-000-000-000,3,PKO-14,1985,0,11.412,2.434665433351254,20,2.995732273553991,224.305444080423,41.0299732016628,11.21527220402115,2.417276439101714,0,0,0.044,0.08341,0.118164,CWH,-0.9758993397997916,0,FALSE,FALSE,-1.054419312297202,-0.5986843351262291
PKO,BRUNDIGE CREEK,915-823500-51800-00000-0000-0000-000-000-000-000-000-000,3,PKO-14,1987,0,11.412,2.434665433351254,100,4.605170185988092,239.310068307278,224.305444080423,2.3931006830727797,0.8725898820372975,0,0,0.044,0.08341,0.118164,CWH,0.8862048812919091,0,FALSE,FALSE,-1.054419312297202,-0.5986843351262291
PKO,BRUNDIGE CREEK,915-823500-51800-00000-0000-0000-000-000-000-000-000-000,3,PKO-14,1989,0,11.412,2.434665433351254,100,4.605170185988092,259.583440327138,239.310068307278,2.5958344032713803,0.9539080076205475,0,0,0.044,0.08341,0.118164,CWH,0.15947767939610902,0,FALSE,FALSE,-1.054419312297202,-0.5986843351262291
PKO,BRUNDIGE CREEK,915-823500-51800-00000-0000-0000-000-000-000-000-000-000,3,PKO-14,1991,0,11.412,2.434665433351254,50,3.912023005428146,323.280441991348,259.583440327138,6.46560883982696,1.8664971825502072,0,0,0.044,0.08341,0.118164,CWH,-0.18487911555035336,0,FALSE,FALSE,-1.054419312297202,-0.5986843351262291
PKO,BRUNDIGE CREEK,915-823500-51800-00000-0000-0000-000-000-000-000-000-000,3,PKO-14,1993,0,11.412,2.434665433351254,100,4.605170185988092,250.355524246984,323.280441991348,2.50355524246984,0.9177118186398122,0,0,0.044,0.08341,0.118164,CWH,-1.7567819796155162,0,FALSE,FALSE,-1.054419312297202,-0.5986843351262291
PKO,BRUNDIGE CREEK,915-823500-51800-00000-0000-0000-000-000-000-000-000-000,3,PKO-14,1995,0,11.412,2.434665433351254,100,4.605170185988092,17.2879460921318,250.355524246984,0.172879460921318,-1.7551606850130441,0,0,0.044,0.08341,0.118164,CWH,-0.5672147431639023,0,FALSE,FALSE,-1.054419312297202,-0.5986843351262291
PKO,BRUNDIGE CREEK,915-823500-51800-00000-0000-0000-000-000-000-000-000-000,3,PKO-14,1997,0,11.412,2.434665433351254,10,2.302585092994046,261.519187976645,17.2879460921318,26.1519187976645,3.2639225644027308,0,0,0.044,0.08341,0.118164,CWH,0.8907774948170872,0,FALSE,FALSE,-1.054419312297202,-0.5986843351262291
PKO,BRUNDIGE CREEK,915-823500-51800-00000-0000-0000-000-000-000-000-000-000,3,PKO-14,1999,0,11.412,2.434665433351254,100,4.605170185988092,708.653067380921,261.519187976645,7.08653067380921,1.9581958941004916,0,0,0.044,0.08341,0.118164,CWH,1.6302835492491898,0,FALSE,FALSE,-1.054419312297202,-0.5986843351262291
PKO,BRUNDIGE CREEK,915-823500-51800-00000-0000-0000-000-000-000-000-000-000,3,PKO-14,2001,0,11.412,2.434665433351254,500,6.214608098422191,1394.04454773348,708.653067380921,2.78808909546696,1.025356449154873,0,0,0.044,0.08341,0.118164,CWH,1.9190067210816288,0,FALSE,FALSE,-1.054419312297202,-0.5986843351262291
PKO,BRUNDIGE CREEK,915-823500-51800-00000-0000-0000-000-000-000-000-000-000,3,PKO-14,2003,0,11.412,2.434665433351254,1000,6.907755278982137,2875.25221838252,1394.04454773348,2.8752522183825198,1.0561403985344764,0,0,0.044,0.08341,0.118164,CWH,0.41101277747559006,0,FALSE,FALSE,-1.054419312297202,-0.5986843351262291
PKO,BRUNDIGE CREEK,915-823500-51800-00000-0000-0000-000-000-000-000-000-000,3,PKO-14,2005,0,11.412,2.434665433351254,2000,7.600902459542082,1125.53711133425,2875.25221838252,0.562768555667125,-0.5748868265409873,0,0,0.044,0.08341,0.118164,CWH,-0.8145696192436794,0,FALSE,FALSE,-1.054419312297202,-0.5986843351262291
PKO,BRUNDIGE CREEK,915-823500-51800-00000-0000-0000-000-000-000-000-000-000,3,PKO-14,2007,0,11.412,2.434665433351254,700,6.551080335043404,3184.69617032298,1125.53711133425,4.549565957604257,1.515031834479438,0,0,0.044,0.08341,0.118164,CWH,0.8768892458318005,0,FALSE,FALSE,-1.054419312297202,-0.5986843351262291
PKO,STUMAUN CREEK,910-828500-00000-00000-0000-0000-000-000-000-000-000-000,3,PKO-14,1955,0,15.637,2.749639900861373,400,5.991464547107982,421.854679457835,713.489972933883,1.0546366986445874,0.05319634614767707,0,0,0.002,0.22852,0.212995,CWH,-0.07106879047729574,0,FALSE,FALSE,-0.8336837221005274,-0.5986843351262291
PKO,STUMAUN CREEK,910-828500-00000-00000-0000-0000-000-000-000-000-000-000,3,PKO-14,1961,0,15.637,2.749639900861373,200,5.298317366548036,257.278136045015,334.845833638106,1.286390680225075,0.2518403745664103,0,0,0.002,0.22852,0.212995,CWH,0.00583928468743269,0,FALSE,FALSE,-0.8336837221005274,-0.5986843351262291
PKO,STUMAUN CREEK,910-828500-00000-00000-0000-0000-000-000-000-000-000-000,3,PKO-14,1963,0,15.637,2.749639900861373,200,5.298317366548036,1805.54835041455,257.278136045015,9.02774175207275,2.2003022533260315,0,0,0.002,0.22852,0.212995,CWH,0.5797944041154652,0,FALSE,FALSE,-0.8336837221005274,-0.5986843351262291
PKO,STUMAUN CREEK,910-828500-00000-00000-0000-0000-000-000-000-000-000-000,3,PKO-14,1965,0,15.637,2.749639900861373,1000,6.907755278982137,2286.57999796769,1805.54835041455,2.28657999796769,0.8270572505879933,0,0,0.002,0.22852,0.212995,CWH,-0.7093794641235007,0,FALSE,FALSE,-0.8336837221005274,-0.5986843351262291
PKO,STUMAUN CREEK,910-828500-00000-00000-0000-0000-000-000-000-000-000-000,3,PKO-14,1967,0,15.637,2.749639900861373,1000,6.907755278982137,2575.32386208422,2286.57999796769,2.57532386208422,0.9459752978902967,0,0,0.002,0.22852,0.212995,CWH,-0.48089809283299456,0,FALSE,FALSE,-0.8336837221005274,-0.5986843351262291
PKO,STUMAUN CREEK,910-828500-00000-00000-0000-0000-000-000-000-000-000-000,3,PKO-14,1969,0,15.637,2.749639900861373,1500,7.313220387090301,7705.13958283366,2575.32386208422,5.136759721889106,1.6364224763770026,0,0,0.002,0.22852,0.212995,CWH,0.09673401232408343,0,FALSE,FALSE,-0.8336837221005274,-0.5986843351262291
PKO,STUMAUN CREEK,910-828500-00000-00000-0000-0000-000-000-000-000-000-000,3,PKO-14,1971,0,15.637,2.749639900861373,5000,8.517193191416238,7214.98311300735,7705.13958283366,1.4429966226014699,0.36672193924947283,0,0,0.002,0.22852,0.212995,CWH,-0.34080392906905344,0,FALSE,FALSE,-0.8336837221005274,-0.5986843351262291
PKO,STUMAUN CREEK,910-828500-00000-00000-0000-0000-000-000-000-000-000-000,3,PKO-14,1973,0,15.637,2.749639900861373,5000,8.517193191416238,4894.36907634248,7214.98311300735,0.978873815268496,-0.02135253621083957,0,0,0.002,0.22852,0.212995,CWH,-0.20355231452664888,0,FALSE,FALSE,-0.8336837221005274,-0.5986843351262291
PKO,STUMAUN CREEK,910-828500-00000-00000-0000-0000-000-000-000-000-000-000,3,PKO-14,1975,0,15.637,2.749639900861373,3500,8.160518247477505,4566.96515894249,4894.36907634248,1.304847188269283,0.2660859368065941,0,0,0.002,0.22852,0.212995,CWH,1.2286162579398736,0,FALSE,FALSE,-0.8336837221005274,-0.5986843351262291
PKO,STUMAUN CREEK,910-828500-00000-00000-0000-0000-000-000-000-000-000-000,3,PKO-14,1983,0,15.637,2.749639900861373,6000,8.699514748210191,18463.4879407483,19868.7227787943,3.0772479901247163,1.1240356878679838,0,0,0.002,0.22852,0.212995,CWH,0.10267616261581472,0,FALSE,FALSE,-0.8336837221005274,-0.5986843351262291
PKO,STUMAUN CREEK,910-828500-00000-00000-0000-0000-000-000-000-000-000-000,3,PKO-14,1985,0,15.637,2.749639900861373,9000,9.104979856318357,13458.3266448254,18463.4879407483,1.4953696272028223,0.40237341855945047,0,0,0.002,0.22852,0.212995,CWH,-0.9758993397997916,0,FALSE,FALSE,-0.8336837221005274,-0.5986843351262291
PKO,STUMAUN CREEK,910-828500-00000-00000-0000-0000-000-000-000-000-000-000,3,PKO-14,1987,0.326921397674596,15.637,2.749639900861373,6000,8.699514748210191,14358.6040984367,13458.3266448254,2.3931006830727832,0.8725898820372989,0,0,0.002,0.22852,0.212995,CWH,0.8862048812919091,0,FALSE,FALSE,-0.8336837221005274,-0.5986843351262291