Species,River,WATERSHED_CDE,DFO,CU,BroodYear,hararea_m2_3005,area_km2,ln_area_km2,Spawners,logS,Recruits,Returns,recruitPerSpawner,ln_RS,ECA_age_proxy,ECA_age_proxy_forested_only,lake_cover_pct,var_eaubc_KFACTOR,var_eaubc_MELTONS_R,vri_bec_zone,npgo,portion_reporting_vri_cover1_missing,hatchery_enhancement,year_of_enhacement,ln_area_km2_std,ECA_age_proxy_forested_only_std
PKO,HAANS CREEK,950-996400-00000-00000-0000-0000-000-000-000-000-000-000,2,PKO-9,1981,178213.619761297,30.71,3.424588334452731,40,3.6888794541139363,50,40.6875325129622,1.25,0.22314355131420976,0.3154,0.3158,0,0.17801,0.056181,CWH,-0.22613906119882837,0,FALSE,FALSE,-0.3606766811843527,3.5569537590761717
PKO,HAANS CREEK,950-996400-00000-00000-0000-0000-000-000-000-000-000-000,2,PKO-9,1983,810221.224120748,30.71,3.424588334452731,50,3.912023005428146,397.99207532242,50,7.9598415064484005,2.074409088407859,0.3431,0.3435,0,0.17801,0.056181,CWH,0.10267616261581472,0,FALSE,FALSE,-0.3606766811843527,3.921460330353583
PKO,HAANS CREEK,950-996400-00000-00000-0000-0000-000-000-000-000-000-000,2,PKO-9,1985,637150.843213166,30.71,3.424588334452731,300,5.703782474656201,62.2368398044021,397.99207532242,0.20745613268134033,-1.5728353704259919,0.348,0.3483,0,0.17801,0.056181,CWH,-0.9758993397997916,0,FALSE,FALSE,-0.3606766811843527,3.98462392393234
PKO,HAANS CREEK,950-996400-00000-00000-0000-0000-000-000-000-000-000-000,2,PKO-9,1987,409465.197031109,30.71,3.424588334452731,62,4.127134385045092,106.935195371367,62.2368398044021,1.7247612156672096,0.5450886152014333,0.3663,0.3667,0,0.17801,0.056181,CWH,0.8862048812919091,0,FALSE,FALSE,-0.3606766811843527,4.22675103265091
PKO,HAANS CREEK,950-996400-00000-00000-0000-0000-000-000-000-000-000-000,2,PKO-9,1989,43.9474616668886,30.71,3.424588334452731,100,4.605170185988092,200.899358120524,106.935195371367,2.00899358120524,0.6976338908079024,0.3267,0.3271,0,0.17801,0.056181,CWH,0.15947767939610902,0,FALSE,FALSE,-0.3606766811843527,3.705651385626162
PKO,HAANS CREEK,950-996400-00000-00000-0000-0000-000-000-000-000-000-000,2,PKO-9,1991,0,30.71,3.424588334452731,200,5.298317366548036,774.611249147003,200.899358120524,3.873056245735015,1.3540439229510515,0.3126,0.3129,0,0.17801,0.056181,CWH,-0.18487911555035336,0,FALSE,FALSE,-0.3606766811843527,3.518792421289006
PKO,HAANS CREEK,950-996400-00000-00000-0000-0000-000-000-000-000-000-000,2,PKO-9,1993,0,30.71,3.424588334452731,770,6.646390514847729,301.219817967522,774.611249147003,0.39119456878898956,-0.9385502243815791,0.3293,0.3297,0,0.17801,0.056181,CWH,-1.7567819796155162,0,FALSE,FALSE,-0.3606766811843527,3.7398649988146557
PKO,HAANS CREEK,950-996400-00000-00000-0000-0000-000-000-000-000-000-000,2,PKO-9,1995,0,30.71,3.424588334452731,300,5.703782474656201,154.541148054992,301.219817967522,0.5151371601833067,-0.6633220833250375,0.2914,0.2917,0,0.17801,0.056181,CWH,-0.5672147431639023,0,FALSE,FALSE,-0.3606766811843527,3.2398198829828284
PKO,MATHERS CREEK,955-081000-38300-00000-0000-0000-000-000-000-000-000-000,2,PKO-9,1957,1787338.43839961,80.051,4.382663931557077,3500,8.160518247477505,408.113709890678,9639.99560361115,0.1166039171116223,-2.1489724111907265,0.1631,0.1698,0.023,0.19148,0.073539,CWH,-0.3276691034772351,0,FALSE,FALSE,0.3107472093031038,1.6357277877223069
PKO,MATHERS CREEK,955-081000-38300-00000-0000-0000-000-000-000-000-000-000,2,PKO-9,1959,0,80.051,4.382663931557077,400,5.991464547107982,19093.7874377062,408.113709890678,47.7344685942655,3.8656537489750318,0.1539,0.1603,0.023,0.19148,0.073539,CWH,0.7824977620566573,0,FALSE,FALSE,0.3107472093031038,1.51071650876435
PKO,MATHERS CREEK,955-081000-38300-00000-0000-0000-000-000-000-000-000-000,2,PKO-9,1961,0,80.051,4.382663931557077,15000,9.615805480084347,30000.9055353323,19093.7874377062,2.0000603690221532,0.6931773646154787,0.1485,0.1547,0.023,0.19148,0.073539,CWH,0.00583928468743269,0,FALSE,FALSE,0.3107472093031038,1.4370256495891331
PKO,MATHERS CREEK,955-081000-38300-00000-0000-0000-000-000-000-000-000-000,2,PKO-9,1963,34351.1733013503,80.051,4.382663931557077,30000,10.308952660644293,13051.0181133866,30000.9055353323,0.4350339371128867,-0.8323312345851066,0.1304,0.1358,0.023,0.19148,0.073539,CWH,0.5797944041154652,0,FALSE,FALSE,0.3107472093031038,1.1883189998727768
PKO,MATHERS CREEK,955-081000-38300-00000-0000-0000-000-000-000-000-000-000,2,PKO-9,1965,0,80.051,4.382663931557077,13000,9.472704636443673,7703.01148895228,13051.0181133866,0.5925393453040215,-0.5233380026011959,0.1164,0.1212,0.023,0.19148,0.073539,CWH,-0.7093794641235007,0,FALSE,FALSE,0.3107472093031038,0.9961964027373903
PKO,MATHERS CREEK,955-081000-38300-00000-0000-0000-000-000-000-000-000-000,2,PKO-9,1967,0,80.051,4.382663931557077,7500,8.922658299524402,1642.45865290191,7703.01148895228,0.218994487053588,-1.5187087227537759,0.1147,0.1194,0.023,0.19148,0.073539,CWH,-0.48089809283299456,0,FALSE,FALSE,0.3107472093031038,0.9725100551453564
PKO,MATHERS CREEK,955-081000-38300-00000-0000-0000-000-000-000-000-000-000,2,PKO-9,1969,0,80.051,4.382663931557077,1500,7.313220387090301,1014.26787250242,1642.45865290191,0.67617858166828,-0.39129806376149423,0.0986,0.1027,0.023,0.19148,0.073539,CWH,0.09673401232408343,0,FALSE,FALSE,0.3107472093031038,0.7527533858192634
PKO,MATHERS CREEK,955-081000-38300-00000-0000-0000-000-000-000-000-000-000,2,PKO-9,1975,0,80.051,4.382663931557077,2500,7.824046010856292,1214.03472361964,2950.76271757338,0.48561388944785605,-0.7223414369938043,0.0583,0.0607,0.023,0.19148,0.073539,CWH,1.2286162579398736,0,FALSE,FALSE,0.3107472093031038,0.20007194200513792
PKO,MATHERS CREEK,955-081000-38300-00000-0000-0000-000-000-000-000-000-000,2,PKO-9,1977,2144586.91229003,80.051,4.382663931557077,1000,6.907755278982137,150,1214.03472361964,0.15,-1.8971199848858813,0.0847,0.0882,0.023,0.19148,0.073539,CWH,0.9724829797884954,0,FALSE,FALSE,0.3107472093031038,0.5619466968834345
PKO,MATHERS CREEK,955-081000-38300-00000-0000-0000-000-000-000-000-000-000,2,PKO-9,1979,711311.205984225,80.051,4.382663931557077,150,5.0106352940962555,1729.22013180089,150,11.528134212005932,2.444790500892283,0.0893,0.093,0.023,0.19148,0.073539,CWH,-1.19975713829789,0,FALSE,FALSE,0.3107472093031038,0.6251102904621916
PKO,MATHERS CREEK,955-081000-38300-00000-0000-0000-000-000-000-000-000-000,2,PKO-9,1981,189748.800718363,80.051,4.382663931557077,1700,7.438383530044307,200,1729.22013180089,0.11764705882352941,-2.1400661634962708,0.1152,0.1199,0.023,0.19148,0.073539,CWH,-0.22613906119882837,0,FALSE,FALSE,0.3107472093031038,0.9790895961431436
PKO,MATHERS CREEK,955-081000-38300-00000-0000-0000-000-000-000-000-000-000,2,PKO-9,1983,145196.346417677,80.051,4.382663931557077,200,5.298317366548036,928.648175752313,200,4.643240878761565,1.5354125876751719,0.1105,0.1151,0.023,0.19148,0.073539,CWH,0.10267616261581472,0,FALSE,FALSE,0.3107472093031038,0.915926002564386
PKO,MATHERS CREEK,955-081000-38300-00000-0000-0000-000-000-000-000-000-000,2,PKO-9,1985,520983.411150012,80.051,4.382663931557077,700,6.551080335043404,301.145999053558,928.648175752313,0.4302085700765114,-0.8434851412020878,0.1172,0.122,0.023,0.19148,0.073539,CWH,-0.9758993397997916,0,FALSE,FALSE,0.3107472093031038,1.0067236683338499
PKO,MATHERS CREEK,955-081000-38300-00000-0000-0000-000-000-000-000-000-000,2,PKO-9,1987,230438.690555745,80.051,4.382663931557077,300,5.703782474656201,855.481562970932,301.145999053558,2.8516052099031066,1.047882067270155,0.1195,0.1244,0.023,0.19148,0.073539,CWH,0.8862048812919091,0,FALSE,FALSE,0.3107472093031038,1.0383054651232282
PKO,KLOIYA RIVER,910-791900-00000-00000-0000-0000-000-000-000-000-000-000,4,PKO-14,1955,0,107.174,4.674453681906338,750,6.620073206530356,3163.91009593376,1337.79369925103,4.218546794578347,1.4394907072675671,0.0221,0.0299,0.096,0.24074,0.153195,CWH,-0.07106879047729574,0,FALSE,FALSE,0.5152348405255148,-0.20522778345855408
PKO,KLOIYA RIVER,910-791900-00000-00000-0000-0000-000-000-000-000-000-000,4,PKO-14,1957,152280.029558664,107.174,4.674453681906338,1500,7.313220387090301,1318.05622284105,3163.91009593376,0.8787041485607,-0.12930701524339083,0.0235,0.0318,0.096,0.24074,0.153195,CWH,-0.3276691034772351,0,FALSE,FALSE,0.5152348405255148,-0.18022552766696268
PKO,KLOIYA RIVER,910-791900-00000-00000-0000-0000-000-000-000-000-000-000,4,PKO-14,1959,0,107.174,4.674453681906338,750,6.620073206530356,334.845833638106,1318.05622284105,0.44646111151747464,-0.8064029787241376,0.0235,0.0318,0.096,0.24074,0.153195,CWH,0.7824977620566573,0,FALSE,FALSE,0.5152348405255148,-0.18022552766696268
PKO,KLOIYA RIVER,910-791900-00000-00000-0000-0000-000-000-000-000-000-000,4,PKO-14,1961,0,107.174,4.674453681906338,200,5.298317366548036,4502.36738078776,334.845833638106,22.5118369039388,3.114041255495878,0.0235,0.0318,0.096,0.24074,0.153195,CWH,0.00583928468743269,0,FALSE,FALSE,0.5152348405255148,-0.18022552766696268
PKO,KLOIYA RIVER,910-791900-00000-00000-0000-0000-000-000-000-000-000-000,4,PKO-14,1983,0,107.174,4.674453681906338,150,5.0106352940962555,410.299732016628,496.718069469857,2.73533154677752,1.0062526522115982,0.0267,0.0361,0.096,0.24074,0.153195,CWH,0.10267616261581472,0,FALSE,FALSE,0.5152348405255148,-0.1236414750859927
PKO,KLOIYA RIVER,910-791900-00000-00000-0000-0000-000-000-000-000-000-000,4,PKO-14,1985,0,107.174,4.674453681906338,200,5.298317366548036,1009.3744983619,410.299732016628,5.0468724918095,1.6187687428839386,0.0211,0.0286,0.096,0.24074,0.153195,CWH,-0.9758993397997916,0,FALSE,FALSE,0.5152348405255148,-0.22233459005280082
PKO,KLOIYA RIVER,910-791900-00000-00000-0000-0000-000-000-000-000-000-000,4,PKO-14,1987,44616.0847482256,107.174,4.674453681906338,450,6.1092475827643655,4786.20136614556,1009.3744983619,10.636003035879023,2.3642447588150146,0.0215,0.0291,0.096,0.24074,0.153195,CWH,0.8862048812919091,0,FALSE,FALSE,0.5152348405255148,-0.2157550490550136
PKO,KLOIYA RIVER,910-791900-00000-00000-0000-0000-000-000-000-000-000-000,4,PKO-14,1989,0,107.174,4.674453681906338,2000,7.600902459542082,20766.675226171,4786.20136614556,10.3833376130855,2.340202368740436,0.0202,0.0273,0.096,0.24074,0.153195,CWH,0.15947767939610902,0,FALSE,FALSE,0.5152348405255148,-0.23944139664704756
PKO,KLOIYA RIVER,910-791900-00000-00000-0000-0000-000-000-000-000-000-000,4,PKO-14,1991,0,107.174,4.674453681906338,4000,8.294049640102028,1939.68265194809,20766.675226171,0.4849206629870225,-0.7237699828956184,0.0202,0.0273,0.096,0.24074,0.153195,CWH,-0.18487911555035336,0,FALSE,FALSE,0.5152348405255148,-0.23944139664704756
PKO,KLOIYA RIVER,910-791900-00000-00000-0000-0000-000-000-000-000-000-000,4,PKO-14,1993,0,107.174,4.674453681906338,600,6.396929655216146,1627.31090760539,1939.68265194809,2.7121848460089835,0.9977545263133449,0.0201,0.0272,0.096,0.24074,0.153195,CWH,-1.7567819796155162,0,FALSE,FALSE,0.5152348405255148,-0.24075730484660504
PKO,KLOIYA RIVER,910-791900-00000-00000-0000-0000-000-000-000-000-000-000,4,PKO-14,1995,0,107.174,4.674453681906338,650,6.476972362889683,2074.55353105581,1627.31090760539,3.191620817008938,1.1605288808674072,0.0201,0.0272,0.096,0.24074,0.153195,CWH,-0.5672147431639023,0,FALSE,FALSE,0.5152348405255148,-0.24075730484660504
PKO,SILVER CREEK,910-801300-00000-00000-0000-0000-000-000-000-000-000-000,4,PKO-14,1955,0,19.989,2.9951821222485098,25,3.2188758248682006,843.70935891567,44.5931233083677,33.7483743566268,3.5189322489474035,0.0017,0.0021,0.004,0.23645,0.220303,CWH,-0.07106879047729574,0,FALSE,FALSE,-0.6616065769765316,-0.5710502629355229
PKO,SILVER CREEK,910-801300-00000-00000-0000-0000-000-000-000-000-000-000,4,PKO-14,1957,0,19.989,2.9951821222485098,400,5.991464547107982,43.9352074280348,843.70935891567,0.109838018570087,-2.2087485569232315,0.0014,0.0016,0.004,0.23645,0.220303,CWH,-0.3276691034772351,0,FALSE,FALSE,-0.6616065769765316,-0.5776298039333101
PKO,SILVER CREEK,910-801300-00000-00000-0000-0000-000-000-000-000-000-000,4,PKO-14,1959,0,19.989,2.9951821222485098,25,3.2188758248682006,2511.34375228579,43.9352074280348,100.45375009143159,4.609697423480281,0.0043,0.0052,0.004,0.23645,0.220303,CWH,0.7824977620566573,0,FALSE,FALSE,-0.6616065769765316,-0.5302571087492421
PKO,SILVER CREEK,910-801300-00000-00000-0000-0000-000-000-000-000-000-000,4,PKO-14,1961,0,19.989,2.9951821222485098,1500,7.313220387090301,1929.58602033761,2511.34375228579,1.2863906802250733,0.2518403745664089,0.0043,0.0052,0.004,0.23645,0.220303,CWH,0.00583928468743269,0,FALSE,FALSE,-0.6616065769765316,-0.5302571087492421
PKO,SILVER CREEK,910-801300-00000-00000-0000-0000-000-000-000-000-000-000,4,PKO-14,1967,0,19.989,2.9951821222485098,200,5.298317366548036,1287.66193104211,457.315999593538,6.438309655210549,1.8622660297644515,0.0192,0.0229,0.004,0.23645,0.220303,CWH,-0.48089809283299456,0,FALSE,FALSE,-0.6616065769765316,-0.297341357427575
PKO,SILVER CREEK,910-801300-00000-00000-0000-0000-000-000-000-000-000-000,4,PKO-14,1969,0,19.989,2.9951821222485098,750,6.620073206530356,1849.23349988008,1287.66193104211,2.4656446665067735,0.9024533012968031,0.0184,0.022,0.004,0.23645,0.220303,CWH,0.09673401232408343,0,FALSE,FALSE,-0.6616065769765316,-0.309184531223592
PKO,SILVER CREEK,910-801300-00000-00000-0000-0000-000-000-000-000-000-000,4,PKO-14,1971,0,19.989,2.9951821222485098,1200,7.090076835776092,288.599324520294,1849.23349988008,0.240499437100245,-1.425037529978582,0.0184,0.022,0.004,0.23645,0.220303,CWH,-0.34080392906905344,0,FALSE,FALSE,-0.6616065769765316,-0.309184531223592
PKO,SILVER CREEK,910-801300-00000-00000-0000-0000-000-000-000-000-000-000,4,PKO-14,1973,0,19.989,2.9951821222485098,200,5.298317366548036,419.517349400784,288.599324520294,2.09758674700392,0.7407875158360571,0.0184,0.022,0.004,0.23645,0.220303,CWH,-0.20355231452664888,0,FALSE,FALSE,-0.6616065769765316,-0.309184531223592
PKO,SILVER CREEK,910-801300-00000-00000-0000-0000-000-000-000-000-000-000,4,PKO-14,1975,0,19.989,2.9951821222485098,300,5.703782474656201,799.218902814936,419.517349400784,2.66406300938312,0.9798524045692754,0.0145,0.0173,0.004,0.23645,0.220303,CWH,1.2286162579398736,0,FALSE,FALSE,-0.6616065769765316,-0.37103221660279173
PKO,SILVER CREEK,910-801300-00000-00000-0000-0000-000-000-000-000-000-000,4,PKO-14,1977,61927.5305467664,19.989,2.9951821222485098,350,5.857933154483459,207.718230147688,799.218902814936,0.5934806575648228,-0.5217506559187217,0.0176,0.021,0.004,0.23645,0.220303,CWH,0.9724829797884954,0,FALSE,FALSE,-0.6616065769765316,-0.3223436132191664
PKO,SILVER CREEK,910-801300-00000-00000-0000-0000-000-000-000-000-000-000,4,PKO-14,1979,0,19.989,2.9951821222485098,125,4.8283137373023015,1798.10708053122,207.718230147688,14.38485664424976,2.666176031312544,0.0161,0.0192,0.004,0.23645,0.220303,CWH,-1.19975713829789,0,FALSE,FALSE,-0.6616065769765316,-0.34602996081120035
PKO,SILVER CREEK,910-801300-00000-00000-0000-0000-000-000-000-000-000-000,4,PKO-14,1981,0,19.989,2.9951821222485098,1000,6.907755278982137,3311.45379646571,1798.10708053122,3.31145379646571,1.197387306396734,0.0161,0.0192,0.004,0.23645,0.220303,CWH,-0.22613906119882837,0,FALSE,FALSE,-0.6616065769765316,-0.34602996081120035
PKO,SILVER CREEK,910-801300-00000-00000-0000-0000-000-000-000-000-000-000,4,PKO-14,1983,62705.8056963511,19.989,2.9951821222485098,1000,6.907755278982137,6154.49598024942,3311.45379646571,6.15449598024942,1.817182868427927,0.0192,0.023,0.004,0.23645,0.220303,CWH,0.10267616261581472,0,FALSE,FALSE,-0.6616065769765316,-0.29602544922801755
PKO,SILVER CREEK,910-801300-00000-00000-0000-0000-000-000-000-000-000-000,4,PKO-14,1985,2428860.35186757,19.989,2.9951821222485098,3000,8.006367567650246,4486.10888160846,6154.49598024942,1.49536962720282,0.40237341855944897,0.2646,0.3162,0.004,0.23645,0.220303,CWH,-0.9758993397997916,0,FALSE,FALSE,-0.6616065769765316,3.562217391874401
PKO,SILVER CREEK,910-801300-00000-00000-0000-0000-000-000-000-000-000-000,4,PKO-14,1987,3752.66896908901,19.989,2.9951821222485098,2000,7.600902459542082,9572.40273229112,4486.10888160846,4.78620136614556,1.5657370625972429,0.2815,0.3365,0.004,0.23645,0.220303,CWH,0.8862048812919091,0,FALSE,FALSE,-0.6616065769765316,3.8293467563845622
PKO,SILVER CREEK,910-801300-00000-00000-0000-0000-000-000-000-000-000-000,4,PKO-14,1989,0,19.989,2.9951821222485098,4000,8.294049640102028,18170.8408228996,9572.40273229112,4.542710205724901,1.5135237955559668,0.2807,0.3355,0.004,0.23645,0.220303,CWH,0.15947767939610902,0,FALSE,FALSE,-0.6616065769765316,3.8161876743889875
PKO,SILVER CREEK,910-801300-00000-00000-0000-0000-000-000-000-000-000-000,4,PKO-14,1991,0,19.989,2.9951821222485098,3500,8.160518247477505,13901.059005628,18170.8408228996,3.9717311444651426,1.3792020561944132,0.2807,0.3355,0.004,0.23645,0.220303,CWH,-0.18487911555035336,0,FALSE,FALSE,-0.6616065769765316,3.8161876743889875
PKO,SILVER CREEK,910-801300-00000-00000-0000-0000-000-000-000-000-000-000,4,PKO-14,1993,0,19.989,2.9951821222485098,4300,8.366370301681654,6258.8881061746,13901.059005628,1.4555553735289766,0.37538752781445034,0.2807,0.3355,0.004,0.23645,0.220303,CWH,-1.7567819796155162,0,FALSE,FALSE,-0.6616065769765316,3.8161876743889875
PKO,SILVER CREEK,910-801300-00000-00000-0000-0000-000-000-000-000-000-000,4,PKO-14,2001,474147.57413538,19.989,2.9951821222485098,13000,9.472704636443673,34851.113693337,18424.9797519039,2.6808548994874615,0.9861357360015918,0.2376,0.284,0.004,0.23645,0.220303,CWH,1.9190067210816288,0,FALSE,FALSE,-0.6616065769765316,3.138494951616905
PKO,SILVER CREEK,910-801300-00000-00000-0000-0000-000-000-000-000-000-000,4,PKO-14,2007,0,19.989,2.9951821222485098,14000,9.546812608597396,14522.2145366728,22510.742226685,1.0373010383337715,0.03662218445174271,0.1239,0.1481,0.004,0.23645,0.220303,CWH,0.8768892458318005,0,FALSE,FALSE,-0.6616065769765316,1.3501757084183421
PKO,MCNICHOL CREEK,910-807900-00000-00000-0000-0000-000-000-000-000-000-000,4,PKO-14,1955,0,26.295,3.2693788070413077,75,4.31748811353631,52.7318349322294,133.779369925103,0.7030911324297253,-0.3522687619604868,2e-4,2e-4,0.001,0.22461,0.178215,CWH,-0.07106879047729574,0,FALSE,FALSE,-0.46944824895025977,-0.5960525187271143
PKO,MCNICHOL CREEK,910-807900-00000-00000-0000-0000-000-000-000-000-000-000,4,PKO-14,1961,0,26.295,3.2693788070413077,1500,7.313220387090301,964.793010168805,2511.34375228579,0.6431953401125367,-0.4413068059935364,2e-4,2e-4,0.001,0.22461,0.178215,CWH,0.00583928468743269,0,FALSE,FALSE,-0.46944824895025977,-0.5960525187271143
PKO,MCNICHOL CREEK,910-807900-00000-00000-0000-0000-000-000-000-000-000-000,4,PKO-14,1967,0,26.295,3.2693788070413077,200,5.298317366548036,1287.66193104211,457.315999593538,6.438309655210549,1.8622660297644515,0,0,0.001,0.22461,0.178215,CWH,-0.48089809283299456,0,FALSE,FALSE,-0.46944824895025977,-0.5986843351262291
PKO,MCNICHOL CREEK,910-807900-00000-00000-0000-0000-000-000-000-000-000-000,4,PKO-14,1969,0,26.295,3.2693788070413077,750,6.620073206530356,1232.82233325339,1287.66193104211,1.64376311100452,0.49698819318864146,0,0,0.001,0.22461,0.178215,CWH,0.09673401232408343,0,FALSE,FALSE,-0.46944824895025977,-0.5986843351262291
PKO,MCNICHOL CREEK,910-807900-00000-00000-0000-0000-000-000-000-000-000-000,4,PKO-14,1971,0,26.295,3.2693788070413077,800,6.684611727667927,288.599324520294,1232.82233325339,0.36074915565036747,-1.0195724218704179,0,0,0.001,0.22461,0.178215,CWH,-0.34080392906905344,0,FALSE,FALSE,-0.46944824895025977,-0.5986843351262291
PKO,MCNICHOL CREEK,910-807900-00000-00000-0000-0000-000-000-000-000-000-000,4,PKO-14,1973,0,26.295,3.2693788070413077,200,5.298317366548036,209.758674700392,288.599324520294,1.04879337350196,0.04764033527611174,0,0,0.001,0.22461,0.178215,CWH,-0.20355231452664888,0,FALSE,FALSE,-0.46944824895025977,-0.5986843351262291
PKO,MCNICHOL CREEK,910-807900-00000-00000-0000-0000-000-000-000-000-000-000,4,PKO-14,1975,0,26.295,3.2693788070413077,150,5.0106352940962555,456.696515894249,209.758674700392,3.0446434392949935,1.1133837971937977,0,0,0.001,0.22461,0.178215,CWH,1.2286162579398736,0,FALSE,FALSE,-0.46944824895025977,-0.5986843351262291