Species,River,WATERSHED_CDE,DFO,CU,BroodYear,hararea_m2_3005,area_km2,ln_area_km2,Spawners,logS,Recruits,Returns,recruitPerSpawner,ln_RS,ECA_age_proxy,ECA_age_proxy_forested_only,lake_cover_pct,var_eaubc_KFACTOR,var_eaubc_MELTONS_R,vri_bec_zone,npgo,portion_reporting_vri_cover1_missing,hatchery_enhancement,year_of_enhacement,ln_area_km2_std,ECA_age_proxy_forested_only_std
PKO,QUATAM RIVER,900-368900-00000-00000-0000-0000-000-000-000-000-000-000,13,PKO-3,1965,1996114.02806107,157.245,5.057805098572645,3500,8.160518247477505,2205.8823529411766,5645.1612903225805,0.6302521008403361,-0.461635379575219,0.0749,0.1316,0.017,0.14058,0.164434,CWH,-0.7093794641235007,1.9677510521762e-4,FALSE,FALSE,0.7838893187106395,1.133050855491364
PKO,QUATAM RIVER,900-368900-00000-00000-0000-0000-000-000-000-000-000-000,13,PKO-3,1967,1162424.09875773,157.245,5.057805098572645,750,6.620073206530356,597.0149253731344,2205.8823529411766,0.7960199004975125,-0.22813109282524877,0.0866,0.1522,0.017,0.14058,0.164434,CWH,-0.48089809283299456,1.9677510521762e-4,FALSE,FALSE,0.7838893187106395,1.4041279446001973
PKO,QUATAM RIVER,900-368900-00000-00000-0000-0000-000-000-000-000-000-000,13,PKO-3,1969,1695153.4953488,157.245,5.057805098572645,400,5.991464547107982,1229.5081967213116,597.0149253731344,3.073770491803279,1.1229049812371543,0.0929,0.1632,0.017,0.14058,0.164434,CWH,0.09673401232408343,1.9677510521762e-4,FALSE,FALSE,0.7838893187106395,1.5488778465515158
PKO,QUATAM RIVER,900-368900-00000-00000-0000-0000-000-000-000-000-000-000,13,PKO-3,1971,1593720.11362798,157.245,5.057805098572645,750,6.620073206530356,2727.272727272727,1229.5081967213116,3.6363636363636362,1.2909841813155658,0.1065,0.1871,0.017,0.14058,0.164434,CWH,-0.34080392906905344,1.9677510521762e-4,FALSE,FALSE,0.7838893187106395,1.8633799062457441
PKO,QUATAM RIVER,900-368900-00000-00000-0000-0000-000-000-000-000-000-000,13,PKO-3,1973,909.883052474775,157.245,5.057805098572645,1500,7.313220387090301,5000,2727.272727272727,3.3333333333333335,1.2039728043259361,0.1034,0.1817,0.017,0.14058,0.164434,CWH,-0.20355231452664888,1.9677510521762e-4,FALSE,FALSE,0.7838893187106395,1.7923208634696424
PKO,QUATAM RIVER,900-368900-00000-00000-0000-0000-000-000-000-000-000-000,13,PKO-3,1975,0,157.245,5.057805098572645,3500,8.160518247477505,12195.121951219511,5000,3.484320557491289,1.2482730632225159,0.0973,0.171,0.017,0.14058,0.164434,CWH,1.2286162579398736,1.9677510521762e-4,FALSE,FALSE,0.7838893187106395,1.6515186861169964
PKO,QUATAM RIVER,900-368900-00000-00000-0000-0000-000-000-000-000-000-000,13,PKO-3,1977,17.4606057799028,157.245,5.057805098572645,5000,8.517193191416238,9302.325581395347,12195.121951219511,1.8604651162790695,0.620826518980319,0.0899,0.158,0.017,0.14058,0.164434,CWH,0.9724829797884954,1.9677510521762e-4,FALSE,FALSE,0.7838893187106395,1.4804506201745289
PKO,QUATAM RIVER,900-368900-00000-00000-0000-0000-000-000-000-000-000-000,13,PKO-3,1979,0,157.245,5.057805098572645,4000,8.294049640102028,9482.758620689654,9302.325581395347,2.3706896551724137,0.8631809065602066,0.082,0.1442,0.017,0.14058,0.164434,CWH,-1.19975713829789,1.9677510521762e-4,FALSE,FALSE,0.7838893187106395,1.2988552886356017
PKO,QUATAM RIVER,900-368900-00000-00000-0000-0000-000-000-000-000-000-000,13,PKO-3,1981,0,157.245,5.057805098572645,5500,8.612503371220562,350.8771929824561,9482.758620689654,0.06379585326953748,-2.7520670865189847,0.0821,0.1443,0.017,0.14058,0.164434,CWH,-0.22613906119882837,1.9677510521762e-4,FALSE,FALSE,0.7838893187106395,1.3001711968351595
PKO,QUATAM RIVER,900-368900-00000-00000-0000-0000-000-000-000-000-000-000,13,PKO-3,1983,38154.0288166894,157.245,5.057805098572645,200,5.298317366548036,3000,350.8771929824561,15,2.70805020110221,0.0763,0.134,0.017,0.14058,0.164434,CWH,0.10267616261581472,1.9677510521762e-4,FALSE,FALSE,0.7838893187106395,1.1646326522807429
PKO,QUATAM RIVER,900-368900-00000-00000-0000-0000-000-000-000-000-000-000,13,PKO-3,1985,359173.895738933,157.245,5.057805098572645,1500,7.313220387090301,357.1428571428571,3000,0.23809523809523808,-1.4350845252893227,0.0674,0.1184,0.017,0.14058,0.164434,CWH,-0.9758993397997916,1.9677510521762e-4,FALSE,FALSE,0.7838893187106395,0.9593509731497819
PKO,QUATAM RIVER,900-368900-00000-00000-0000-0000-000-000-000-000-000-000,13,PKO-3,1987,0.140948717482388,157.245,5.057805098572645,200,5.298317366548036,26315.789473684217,357.1428571428571,131.5789473684211,4.879607031689852,0.058,0.102,0.017,0.14058,0.164434,CWH,0.8862048812919091,1.9677510521762e-4,FALSE,FALSE,0.7838893187106395,0.7435420284223613
PKO,QUATAM RIVER,900-368900-00000-00000-0000-0000-000-000-000-000-000-000,13,PKO-3,1989,0,157.245,5.057805098572645,5000,8.517193191416238,810.8108108108108,26315.789473684217,0.16216216216216217,-1.8191584434161694,0.0487,0.0856,0.017,0.14058,0.164434,CWH,0.15947767939610902,1.9677510521762e-4,FALSE,FALSE,0.7838893187106395,0.5277330836949409
PKO,QUATAM RIVER,900-368900-00000-00000-0000-0000-000-000-000-000-000-000,13,PKO-3,1991,0,157.245,5.057805098572645,300,5.703782474656201,909.0909090909092,810.8108108108108,3.0303030303030307,1.1086626245216114,0.0394,0.0693,0.017,0.14058,0.164434,CWH,-0.18487911555035336,1.9677510521762e-4,FALSE,FALSE,0.7838893187106395,0.31324004716707793
PKO,QUATAM RIVER,900-368900-00000-00000-0000-0000-000-000-000-000-000-000,13,PKO-3,1993,0,157.245,5.057805098572645,400,5.991464547107982,150,909.0909090909092,0.375,-0.9808292530117262,0.0335,0.0588,0.017,0.14058,0.164434,CWH,-1.7567819796155162,1.9677510521762e-4,FALSE,FALSE,0.7838893187106395,0.17506968621354654
PKO,QUATAM RIVER,900-368900-00000-00000-0000-0000-000-000-000-000-000-000,13,PKO-3,1995,0,157.245,5.057805098572645,54,3.9889840465642745,22.72727272727273,150,0.4208754208754209,-0.8654184015003984,0.0316,0.0556,0.017,0.14058,0.164434,CWH,-0.5672147431639023,1.9677510521762e-4,FALSE,FALSE,0.7838893187106395,0.13296062382770837
PKO,QUATAM RIVER,900-368900-00000-00000-0000-0000-000-000-000-000-000-000,13,PKO-3,1997,417007.849268431,157.245,5.057805098572645,10,2.302585092994046,21.649484536082475,22.72727272727273,2.1649484536082477,0.772396552214086,0.0328,0.0577,0.017,0.14058,0.164434,CWH,0.8907774948170872,1.9677510521762e-4,FALSE,FALSE,0.7838893187106395,0.16059469601841472
PKO,QUATAM RIVER,900-368900-00000-00000-0000-0000-000-000-000-000-000-000,13,PKO-3,1999,0,157.245,5.057805098572645,21,3.044522437723423,581.3953488372093,21.649484536082475,27.685492801771872,3.3209085504333524,0.0317,0.0557,0.017,0.14058,0.164434,CWH,1.6302835492491898,1.9677510521762e-4,FALSE,FALSE,0.7838893187106395,0.13427653202726586
PKO,QUATAM RIVER,900-368900-00000-00000-0000-0000-000-000-000-000-000-000,13,PKO-3,2001,0,157.245,5.057805098572645,500,6.214608098422191,216,581.3953488372093,0.432,-0.8393296907380268,0.032,0.0562,0.017,0.14058,0.164434,CWH,1.9190067210816288,1.9677510521762e-4,FALSE,FALSE,0.7838893187106395,0.14085607302505307
PKO,QUATAM RIVER,900-368900-00000-00000-0000-0000-000-000-000-000-000-000,13,PKO-3,2003,754933.408399816,157.245,5.057805098572645,162,5.087596335232384,4398.913043478261,216,27.15378421900161,3.3015164185825325,0.0357,0.0627,0.017,0.14058,0.164434,CWH,0.41101277747559006,1.9677510521762e-4,FALSE,FALSE,0.7838893187106395,0.22639010599628687
PKO,QUATAM RIVER,900-368900-00000-00000-0000-0000-000-000-000-000-000-000,13,PKO-3,2005,0,157.245,5.057805098572645,4047,8.305731144875866,193.33333333333331,4398.913043478261,0.04777201219009966,-3.0413153300035103,0.0352,0.0619,0.017,0.14058,0.164434,CWH,-0.8145696192436794,1.9677510521762e-4,FALSE,FALSE,0.7838893187106395,0.2158628403998272
PKO,QUATAM RIVER,900-368900-00000-00000-0000-0000-000-000-000-000-000-000,13,PKO-3,2007,289453.509281452,157.245,5.057805098572645,174,5.159055299214529,4067.469879518073,193.33333333333331,23.376263675391225,3.1517211346928122,0.0401,0.0704,0.017,0.14058,0.164434,CWH,0.8768892458318005,1.9677510521762e-4,FALSE,FALSE,0.7838893187106395,0.32771503736220986
PKO,QUATAM RIVER,900-368900-00000-00000-0000-0000-000-000-000-000-000-000,13,PKO-3,2009,17710.1159804104,157.245,5.057805098572645,3376,8.124446855715847,961.5384615384615,4067.469879518073,0.28481589500546844,-1.255912289886992,0.0383,0.0673,0.017,0.14058,0.164434,CWH,1.604652193542091,1.9677510521762e-4,FALSE,FALSE,0.7838893187106395,0.2869218831759291
PKO,QUATAM RIVER,900-368900-00000-00000-0000-0000-000-000-000-000-000-000,13,PKO-3,2011,2049469.49162086,157.245,5.057805098572645,500,6.214608098422191,4745.569620253164,961.5384615384615,9.491139240506328,2.25035865183479,0.0514,0.0904,0.017,0.14058,0.164434,CWH,0.7408851700104637,1.9677510521762e-4,FALSE,FALSE,0.7838893187106395,0.5908966772736981
PKO,QUATSE RIVER,920-896200-00000-00000-0000-0000-000-000-000-000-000-000,12,PKO-5,1959,175632.383241912,95.899,4.563295554306349,3500,8.160518247477505,1875,8333.333333333332,0.5357142857142857,-0.6241543090729939,0.0657,0.068,0.023,0.23928,0.086562,CWH,0.7824977620566573,0.0647135944994765,TRUE,FALSE,0.43733470120659523,0.29613324057283125
PKO,QUATSE RIVER,920-896200-00000-00000-0000-0000-000-000-000-000-000-000,12,PKO-5,1961,338240.906515009,95.899,4.563295554306349,750,6.620073206530356,1530.6122448979593,1875,2.0408163265306123,0.7133498878774648,0.069,0.0715,0.023,0.23928,0.086562,CWH,0.00583928468743269,0.0647135944994765,TRUE,FALSE,0.43733470120659523,0.34219002755734157
PKO,QUATSE RIVER,920-896200-00000-00000-0000-0000-000-000-000-000-000-000,12,PKO-5,1963,0,95.899,4.563295554306349,750,6.620073206530356,5645.1612903225805,1530.6122448979593,7.526881720430107,2.0184808418901485,0.0668,0.0692,0.023,0.23928,0.086562,CWH,0.5797944041154652,0.0647135944994765,TRUE,FALSE,0.43733470120659523,0.31192413896752047
PKO,QUATSE RIVER,920-896200-00000-00000-0000-0000-000-000-000-000-000-000,12,PKO-5,1965,5572227.84124825,95.899,4.563295554306349,3500,8.160518247477505,73.52941176470588,5645.1612903225805,0.02100840336134454,-3.862832761237374,0.1242,0.1286,0.023,0.23928,0.086562,CWH,-0.7093794641235007,0.0647135944994765,TRUE,FALSE,0.43733470120659523,1.0935736095046409
PKO,QUATSE RIVER,920-896200-00000-00000-0000-0000-000-000-000-000-000-000,12,PKO-5,1967,5565731.59108859,95.899,4.563295554306349,25,3.2188758248682006,37.3134328358209,73.52941176470588,1.492537313432836,0.40047756659712536,0.1821,0.1887,0.023,0.23928,0.086562,CWH,-0.48089809283299456,0.0647135944994765,TRUE,FALSE,0.43733470120659523,1.8844344374386635
PKO,QUATSE RIVER,920-896200-00000-00000-0000-0000-000-000-000-000-000-000,12,PKO-5,1969,0,95.899,4.563295554306349,25,3.2188758248682006,2459.016393442623,37.3134328358209,98.36065573770493,4.588640884036881,0.1618,0.1676,0.023,0.23928,0.086562,CWH,0.09673401232408343,0.0647135944994765,TRUE,FALSE,0.43733470120659523,1.6067778073320431
PKO,QUATSE RIVER,920-896200-00000-00000-0000-0000-000-000-000-000-000-000,12,PKO-5,1971,0,95.899,4.563295554306349,1500,7.313220387090301,1818.181818181818,2459.016393442623,1.212121212121212,0.1923718926474559,0.161,0.1668,0.023,0.23928,0.086562,CWH,-0.34080392906905344,0.0647135944994765,TRUE,FALSE,0.43733470120659523,1.5962505417355837
PKO,QUATSE RIVER,920-896200-00000-00000-0000-0000-000-000-000-000-000-000,12,PKO-5,1973,13138.5034327021,95.899,4.563295554306349,1000,6.907755278982137,428.5714285714286,1818.181818181818,0.4285714285714286,-0.8472978603872036,0.1619,0.1677,0.023,0.23928,0.086562,CWH,-0.20355231452664888,0.0647135944994765,TRUE,FALSE,0.43733470120659523,1.6080937155316004
PKO,QUATSE RIVER,920-896200-00000-00000-0000-0000-000-000-000-000-000-000,12,PKO-5,1983,0,95.899,4.563295554306349,100,4.605170185988092,300,175.43859649122803,3,1.0986122886681098,0.23,0.2383,0.023,0.23928,0.086562,CWH,0.10267616261581472,0.0647135944994765,TRUE,FALSE,0.43733470120659523,2.5371249044191546
PKO,READ CREEK,900-501200-00000-00000-0000-0000-000-000-000-000-000-000,13,PKO-7,1959,0,54.594,3.999923986602609,200,5.298317366548036,500,476.19047619047615,2.5,0.9162907318741551,0.0998,0.1023,0.013,-0.81928,0.164043,CWH,0.7824977620566573,3.4273108955437e-4,FALSE,FALSE,0.042521253373349006,0.7474897530210337
PKO,READ CREEK,900-501200-00000-00000-0000-0000-000-000-000-000-000-000,13,PKO-7,1961,0,54.594,3.999923986602609,200,5.298317366548036,408.16326530612247,500,2.0408163265306123,0.7133498878774648,0.0998,0.1023,0.013,-0.81928,0.164043,CWH,0.00583928468743269,3.4273108955437e-4,FALSE,FALSE,0.042521253373349006,0.7474897530210337
PKO,READ CREEK,900-501200-00000-00000-0000-0000-000-000-000-000-000-000,13,PKO-7,1963,214795.162672148,54.594,3.999923986602609,200,5.298317366548036,120.96774193548389,408.16326530612247,0.6048387096774195,-0.5027934520687262,0.1038,0.1063,0.013,-0.81928,0.164043,CWH,0.5797944041154652,3.4273108955437e-4,FALSE,FALSE,0.042521253373349006,0.8001260810033314
PKO,READ CREEK,900-501200-00000-00000-0000-0000-000-000-000-000-000-000,13,PKO-7,1965,5033238.51257567,54.594,3.999923986602609,75,4.31748811353631,588.2352941176471,120.96774193548389,7.843137254901961,2.0596389143836564,0.1828,0.1873,0.013,-0.81928,0.164043,CWH,-0.7093794641235007,3.4273108955437e-4,FALSE,FALSE,0.042521253373349006,1.8660117226448591
PKO,READ CREEK,900-501200-00000-00000-0000-0000-000-000-000-000-000-000,13,PKO-7,1973,19732.3993141307,54.594,3.999923986602609,200,5.298317366548036,285.7142857142857,363.6363636363636,1.4285714285714286,0.3566749439387324,0.214,0.2193,0.013,-0.81928,0.164043,CWH,-0.20355231452664888,3.4273108955437e-4,FALSE,FALSE,0.042521253373349006,2.2871023465032403
PKO,READ CREEK,900-501200-00000-00000-0000-0000-000-000-000-000-000-000,13,PKO-7,1975,63189.8746785025,54.594,3.999923986602609,200,5.298317366548036,487.8048780487805,285.7142857142857,2.4390243902439024,0.8915981192837835,0.2069,0.212,0.013,-0.81928,0.164043,CWH,1.2286162579398736,3.4273108955437e-4,FALSE,FALSE,0.042521253373349006,2.1910410479355473
PKO,READ CREEK,900-501200-00000-00000-0000-0000-000-000-000-000-000-000,13,PKO-7,1977,1103778.12608715,54.594,3.999923986602609,200,5.298317366548036,465.1162790697674,487.8048780487805,2.325581395348837,0.8439700702945289,0.2136,0.2189,0.013,-0.81928,0.164043,CWH,0.9724829797884954,3.4273108955437e-4,FALSE,FALSE,0.042521253373349006,2.2818387137050107
PKO,READ CREEK,900-501200-00000-00000-0000-0000-000-000-000-000-000-000,13,PKO-7,1979,13923.2159628072,54.594,3.999923986602609,200,5.298317366548036,189.65517241379308,465.1162790697674,0.9482758620689654,-0.053109825313948526,0.2311,0.2368,0.013,-0.81928,0.164043,CWH,-1.19975713829789,3.4273108955437e-4,FALSE,FALSE,0.042521253373349006,2.517386281425793
PKO,READ CREEK,900-501200-00000-00000-0000-0000-000-000-000-000-000-000,13,PKO-7,1981,38413.5925858938,54.594,3.999923986602609,110,4.700480365792417,43.859649122807014,189.65517241379308,0.3987240829346092,-0.9194856227706744,0.2512,0.2574,0.013,-0.81928,0.164043,CWH,-0.22613906119882837,3.4273108955437e-4,FALSE,FALSE,0.042521253373349006,2.7884633705346262
PKO,READ CREEK,900-501200-00000-00000-0000-0000-000-000-000-000-000-000,13,PKO-7,1987,19207.9690777132,54.594,3.999923986602609,100,4.605170185988092,93.75,178.57142857142856,0.9375,-0.06453852113757118,0.1909,0.1956,0.013,-0.81928,0.164043,CWH,0.8862048812919091,3.4273108955437e-4,FALSE,FALSE,0.042521253373349006,1.9752321032081268
PKO,READ CREEK,900-501200-00000-00000-0000-0000-000-000-000-000-000-000,13,PKO-7,1989,0,54.594,3.999923986602609,30,3.4011973816621555,288.46153846153845,93.75,9.615384615384615,2.2633643798407643,0.1949,0.1997,0.013,-0.81928,0.164043,CWH,0.15947767939610902,3.4273108955437e-4,FALSE,FALSE,0.042521253373349006,2.0291843393899818
PKO,READ CREEK,900-501200-00000-00000-0000-0000-000-000-000-000-000-000,13,PKO-7,1991,135841.641567475,54.594,3.999923986602609,150,5.0106352940962555,46.29629629629629,288.46153846153845,0.30864197530864196,-1.1755733298042381,0.1842,0.1888,0.013,-0.81928,0.164043,CWH,-0.18487911555035336,3.4273108955437e-4,FALSE,FALSE,0.042521253373349006,1.8857503456382207
PKO,READ CREEK,900-501200-00000-00000-0000-0000-000-000-000-000-000-000,13,PKO-7,2001,44178.4762789567,54.594,3.999923986602609,145,4.976733742420574,44.303797468354425,155.91397849462368,0.3055434308162374,-1.185663347410091,0.1567,0.1605,0.013,-0.81928,0.164043,CWH,1.9190067210816288,3.4273108955437e-4,FALSE,FALSE,0.042521253373349006,1.513348325163465
PKO,READ CREEK,900-501200-00000-00000-0000-0000-000-000-000-000-000-000,13,PKO-7,2007,15376.6109208016,54.594,3.999923986602609,223,5.407171771460119,450,227.55102040816328,2.0179372197309418,0.7020758113042467,0.1942,0.199,0.013,-0.81928,0.164043,CWH,0.8768892458318005,3.4273108955437e-4,FALSE,FALSE,0.042521253373349006,2.01997298199308
PKO,READ CREEK,900-501200-00000-00000-0000-0000-000-000-000-000-000-000,13,PKO-7,2009,23.8029302281836,54.594,3.999923986602609,423,6.0473721790462776,101.47058823529412,450,0.23988318731748018,-1.427603193637034,0.1864,0.191,0.013,-0.81928,0.164043,CWH,1.604652193542091,3.4273108955437e-4,FALSE,FALSE,0.042521253373349006,1.9147003260284845
PKO,READ CREEK,900-501200-00000-00000-0000-0000-000-000-000-000-000-000,13,PKO-7,2011,1120083.93525943,54.594,3.999923986602609,69,4.23410650459726,717.2043010752689,101.47058823529412,10.394265232974911,2.3412542341531997,0.2014,0.2063,0.013,-0.81928,0.164043,CWH,0.7408851700104637,3.4273108955437e-4,FALSE,FALSE,0.042521253373349006,2.1160342805607733
PKO,SALMON RIVER,920-725300-00000-00000-0000-0000-000-000-000-000-000-000,13,PKO-4,1959,5449463.41457642,1323.92,7.188352311710688,15000,9.615805480084347,37500,35714.28571428571,2.5,0.9162907318741551,0.0964,0.1082,0.013,0.15536,0.179637,CWH,0.7824977620566573,0.0506288498515543,FALSE,FALSE,2.276986839444751,0.8251283367949227
PKO,SALMON RIVER,920-725300-00000-00000-0000-0000-000-000-000-000-000-000,13,PKO-4,1961,6541519.25992588,1323.92,7.188352311710688,15000,9.615805480084347,71428.57142857143,37500,4.761904761904763,1.5606477482646686,0.1026,0.1152,0.013,0.15536,0.179637,CWH,0.00583928468743269,0.0506288498515543,FALSE,FALSE,2.276986839444751,0.9172419107639437
PKO,SALMON RIVER,920-725300-00000-00000-0000-0000-000-000-000-000-000-000,13,PKO-4,1963,4733082.0303634,1323.92,7.188352311710688,35000,10.46310334047155,40322.58064516129,71428.57142857143,1.152073732718894,0.1415635643217868,0.104,0.1167,0.013,0.15536,0.179637,CWH,0.5797944041154652,0.0506288498515543,FALSE,FALSE,2.276986839444751,0.9369805337573054
PKO,SALMON RIVER,920-725300-00000-00000-0000-0000-000-000-000-000-000-000,13,PKO-4,1965,6115491.21255336,1323.92,7.188352311710688,25000,10.126631103850338,10294.117647058823,40322.58064516129,0.4117647058823529,-0.8873031950009028,0.1085,0.1218,0.013,0.15536,0.179637,CWH,-0.7093794641235007,0.0506288498515543,FALSE,FALSE,2.276986839444751,1.0040918519347348
PKO,SALMON RIVER,920-725300-00000-00000-0000-0000-000-000-000-000-000-000,13,PKO-4,1967,14560720.8298263,1323.92,7.188352311710688,3500,8.160518247477505,2238.805970149254,10294.117647058823,0.6396588486140725,-0.44682029379007826,0.1211,0.136,0.013,0.15536,0.179637,CWH,-0.48089809283299456,0.0506288498515543,FALSE,FALSE,2.276986839444751,1.1909508162718918
PKO,SALMON RIVER,920-725300-00000-00000-0000-0000-000-000-000-000-000-000,13,PKO-4,1969,6810153.57411973,1323.92,7.188352311710688,1500,7.313220387090301,24590.16393442623,2238.805970149254,16.39344262295082,2.796881414808826,0.1214,0.1363,0.013,0.15536,0.179637,CWH,0.09673401232408343,0.0506288498515543,FALSE,FALSE,2.276986839444751,1.194898540870564
PKO,SALMON RIVER,920-725300-00000-00000-0000-0000-000-000-000-000-000-000,13,PKO-4,1971,7599558.63703535,1323.92,7.188352311710688,15000,9.615805480084347,13636.363636363636,24590.16393442623,0.9090909090909091,-0.0953101798043249,0.127,0.1426,0.013,0.15536,0.179637,CWH,-0.34080392906905344,0.0506288498515543,FALSE,FALSE,2.276986839444751,1.2778007574426828