Species,River,WATERSHED_CDE,DFO,CU,BroodYear,hararea_m2_3005,area_km2,ln_area_km2,Spawners,logS,Recruits,Returns,recruitPerSpawner,ln_RS,ECA_age_proxy,ECA_age_proxy_forested_only,lake_cover_pct,var_eaubc_KFACTOR,var_eaubc_MELTONS_R,vri_bec_zone,npgo,portion_reporting_vri_cover1_missing,hatchery_enhancement,year_of_enhacement,ln_area_km2_std,ECA_age_proxy_forested_only_std
PKO,BOLIN BAY CREEK,910-519700-00000-00000-0000-0000-000-000-000-000-000-000,7,PKO-13,1973,0,17.627,2.869431817437816,700,6.551080335043404,1722.51838756799,1209.32055554638,2.460740553668557,0.9004623427180506,8e-4,0.0011,0.002,0.2565,0.15287,CWH,-0.20355231452664888,0,FALSE,FALSE,-0.7497329828062625,-0.5842093449310973
PKO,BOLIN BAY CREEK,910-519700-00000-00000-0000-0000-000-000-000-000-000-000,7,PKO-13,1975,0,17.627,2.869431817437816,1200,7.090076835776092,516.479321195773,1722.51838756799,0.4303994343298108,-0.8430415844248991,8e-4,0.0011,0.002,0.2565,0.15287,CWH,1.2286162579398736,0,FALSE,FALSE,-0.7497329828062625,-0.5842093449310973
PKO,BOLIN BAY CREEK,910-519700-00000-00000-0000-0000-000-000-000-000-000-000,7,PKO-13,1977,0,17.627,2.869431817437816,300,5.703782474656201,1682.3702809909,516.479321195773,5.607900936636334,1.7241764849251142,0.0324,0.0421,0.002,0.2565,0.15287,CWH,0.9724829797884954,0,FALSE,FALSE,-0.7497329828062625,-0.04468698311254622
PKO,BOLIN BAY CREEK,910-519700-00000-00000-0000-0000-000-000-000-000-000-000,7,PKO-13,1979,0,17.627,2.869431817437816,1000,6.907755278982137,9350.67296413452,1682.3702809909,9.35067296413452,2.2354483154842812,0.0324,0.0421,0.002,0.2565,0.15287,CWH,-1.19975713829789,0,FALSE,FALSE,-0.7497329828062625,-0.04468698311254622
PKO,BOLIN BAY CREEK,910-519700-00000-00000-0000-0000-000-000-000-000-000-000,7,PKO-13,1981,90394.0139640358,17.627,2.869431817437816,3200,8.070906088787819,3781.29475812256,9350.67296413452,1.1816546119133,0.16691566978013747,0.0375,0.0488,0.002,0.2565,0.15287,CWH,-0.22613906119882837,0,FALSE,FALSE,-0.7497329828062625,0.04347886625780243
PKO,BOLIN BAY CREEK,910-519700-00000-00000-0000-0000-000-000-000-000-000-000,7,PKO-13,1983,0,17.627,2.869431817437816,2200,7.696212639346407,5823.28044961228,3781.29475812256,2.6469456589146727,0.9734063937235712,0.0374,0.0486,0.002,0.2565,0.15287,CWH,0.10267616261581472,0,FALSE,FALSE,-0.7497329828062625,0.04084704985868747
PKO,BOLIN BAY CREEK,910-519700-00000-00000-0000-0000-000-000-000-000-000-000,7,PKO-13,1985,0,17.627,2.869431817437816,3200,8.070906088787819,823.012209832617,5823.28044961228,0.2571913155726928,-1.3579350524582003,0.0374,0.0486,0.002,0.2565,0.15287,CWH,-0.9758993397997916,0,FALSE,FALSE,-0.7497329828062625,0.04084704985868747
PKO,BOLIN BAY CREEK,910-519700-00000-00000-0000-0000-000-000-000-000-000-000,7,PKO-13,1987,0,17.627,2.869431817437816,400,5.991464547107982,6116.02601757468,823.012209832617,15.2900650439367,2.7272032739500194,0.0289,0.0376,0.002,0.2565,0.15287,CWH,0.8862048812919091,0,FALSE,FALSE,-0.7497329828062625,-0.10390285209263106
PKO,BOLIN BAY CREEK,910-519700-00000-00000-0000-0000-000-000-000-000-000-000,7,PKO-13,1989,0,17.627,2.869431817437816,5500,8.612503371220562,5515.87290993449,6116.02601757468,1.0028859836244528,0.002881827168767554,0.0289,0.0376,0.002,0.2565,0.15287,CWH,0.15947767939610902,0,FALSE,FALSE,-0.7497329828062625,-0.10390285209263106
PKO,BOLIN BAY CREEK,910-519700-00000-00000-0000-0000-000-000-000-000-000-000,7,PKO-13,1991,0,17.627,2.869431817437816,4186,8.339500903005945,6955.42169010673,5515.87290993449,1.6615914214301792,0.5077758307295214,0.0289,0.0376,0.002,0.2565,0.15287,CWH,-0.18487911555035336,0,FALSE,FALSE,-0.7497329828062625,-0.10390285209263106
PKO,BOLIN BAY CREEK,910-519700-00000-00000-0000-0000-000-000-000-000-000-000,7,PKO-13,1993,0,17.627,2.869431817437816,6500,8.779557455883728,2273.76990991947,6955.42169010673,0.34981075537222617,-1.0503629696655579,0.0277,0.036,0.002,0.2565,0.15287,CWH,-1.7567819796155162,0,FALSE,FALSE,-0.7497329828062625,-0.12495738328555017
PKO,BOLIN BAY CREEK,910-519700-00000-00000-0000-0000-000-000-000-000-000-000,7,PKO-13,1995,0,17.627,2.869431817437816,2000,7.600902459542082,1766.40689478636,2273.76990991947,0.88320344739318,-0.12419970016848651,0.0277,0.036,0.002,0.2565,0.15287,CWH,-0.5672147431639023,0,FALSE,FALSE,-0.7497329828062625,-0.12495738328555017
PKO,BOLIN BAY CREEK,910-519700-00000-00000-0000-0000-000-000-000-000-000-000,7,PKO-13,1997,0,17.627,2.869431817437816,1500,7.313220387090301,1093.41414725222,1766.40689478636,0.7289427648348132,-0.3161600619421,0.0117,0.0153,0.002,0.2565,0.15287,CWH,0.8907774948170872,0,FALSE,FALSE,-0.7497329828062625,-0.39735038059394057
PKO,BOLIN BAY CREEK,910-519700-00000-00000-0000-0000-000-000-000-000-000-000,7,PKO-13,2007,0,17.627,2.869431817437816,3200,8.070906088787819,5804.51536139322,3984.6853152488,1.8139110504353813,0.595485315449553,0.0092,0.0119,0.002,0.2565,0.15287,CWH,0.8768892458318005,0,FALSE,FALSE,-0.7497329828062625,-0.4420912593788936
PKO,CARTER RIVER,910-524600-00000-00000-0000-0000-000-000-000-000-000-000,7,PKO-13,1955,0,102.816,4.632940982933448,1500,7.313220387090301,26577.3126548044,2870.31985043766,17.718208436536266,2.8745928360326354,0.0122,0.0178,0.113,0.25966,0.160048,CWH,-0.07106879047729574,0,FALSE,FALSE,0.4861425455821369,-0.36445267560500455
PKO,CARTER RIVER,910-524600-00000-00000-0000-0000-000-000-000-000-000-000,7,PKO-13,1957,321364.612453712,102.816,4.632940982933448,15000,9.615805480084347,10314.8488225912,26577.3126548044,0.6876565881727467,-0.3744657107609285,0.0116,0.017,0.113,0.25966,0.160048,CWH,-0.3276691034772351,0,FALSE,FALSE,0.4861425455821369,-0.37497994120146405
PKO,CARTER RIVER,910-524600-00000-00000-0000-0000-000-000-000-000-000-000,7,PKO-13,1959,0,102.816,4.632940982933448,7500,8.922658299524402,29539.9567074604,10314.8488225912,3.938660894328053,1.370840791003375,0.0103,0.0151,0.113,0.25966,0.160048,CWH,0.7824977620566573,0,FALSE,FALSE,0.4861425455821369,-0.39998219699305543
PKO,CARTER RIVER,910-524600-00000-00000-0000-0000-000-000-000-000-000-000,7,PKO-13,1961,0,102.816,4.632940982933448,15000,9.615805480084347,14717.0722046504,29539.9567074604,0.9811381469766933,-0.01904200672513505,0.0103,0.0151,0.113,0.25966,0.160048,CWH,0.00583928468743269,0,FALSE,FALSE,0.4861425455821369,-0.39998219699305543
PKO,CARTER RIVER,910-524600-00000-00000-0000-0000-000-000-000-000-000-000,7,PKO-13,1963,0,102.816,4.632940982933448,7500,8.922658299524402,4560.08928144083,14717.0722046504,0.6080119041921106,-0.4975608179443015,0.0103,0.0151,0.113,0.25966,0.160048,CWH,0.5797944041154652,0,FALSE,FALSE,0.4861425455821369,-0.39998219699305543
PKO,CARTER RIVER,910-524600-00000-00000-0000-0000-000-000-000-000-000-000,7,PKO-13,1965,0,102.816,4.632940982933448,1500,7.313220387090301,581.982453243584,4560.08928144083,0.38798830216238933,-0.9467800888793627,0.0103,0.0151,0.113,0.25966,0.160048,CWH,-0.7093794641235007,0,FALSE,FALSE,0.4861425455821369,-0.39998219699305543
PKO,CARTER RIVER,910-524600-00000-00000-0000-0000-000-000-000-000-000-000,7,PKO-13,1967,0,102.816,4.632940982933448,400,5.991464547107982,5844.92810034707,581.982453243584,14.612320250867674,2.6818650256698455,0.0133,0.0195,0.113,0.25966,0.160048,CWH,-0.48089809283299456,0,FALSE,FALSE,0.4861425455821369,-0.34208223621252803
PKO,CARTER RIVER,910-524600-00000-00000-0000-0000-000-000-000-000-000-000,7,PKO-13,1969,0,102.816,4.632940982933448,5000,8.517193191416238,10347.6690561297,5844.92810034707,2.06953381122594,0.7273233699451093,0.0119,0.0174,0.113,0.25966,0.160048,CWH,0.09673401232408343,0,FALSE,FALSE,0.4861425455821369,-0.36971630840323433
PKO,CARTER RIVER,910-524600-00000-00000-0000-0000-000-000-000-000-000-000,7,PKO-13,1971,0,102.816,4.632940982933448,8000,8.987196820661973,20731.2095236523,10347.6690561297,2.5914011904565375,0.9521987295998791,0.0119,0.0174,0.113,0.25966,0.160048,CWH,-0.34080392906905344,0,FALSE,FALSE,0.4861425455821369,-0.36971630840323433
PKO,CARTER RIVER,910-524600-00000-00000-0000-0000-000-000-000-000-000-000,7,PKO-13,1973,0,102.816,4.632940982933448,12000,9.392661928770137,15789.7518860399,20731.2095236523,1.3158126571699917,0.27445446499573334,0.0129,0.0188,0.113,0.25966,0.160048,CWH,-0.20355231452664888,0,FALSE,FALSE,0.4861425455821369,-0.3512935936094301
PKO,CARTER RIVER,910-524600-00000-00000-0000-0000-000-000-000-000-000-000,7,PKO-13,1975,0,102.816,4.632940982933448,11000,9.305650551780507,17215.9773731924,15789.7518860399,1.5650888521083999,0.4479425968906647,0.0129,0.0188,0.113,0.25966,0.160048,CWH,1.2286162579398736,0,FALSE,FALSE,0.4861425455821369,-0.3512935936094301
PKO,CARTER RIVER,910-524600-00000-00000-0000-0000-000-000-000-000-000-000,7,PKO-13,1977,17734.4796482264,102.816,4.632940982933448,10000,9.210340371976184,20188.4433718908,17215.9773731924,2.01884433718908,0.7025252373931327,0.0095,0.0139,0.113,0.25966,0.160048,CWH,0.9724829797884954,0,FALSE,FALSE,0.4861425455821369,-0.4157730953877447
PKO,CARTER RIVER,910-524600-00000-00000-0000-0000-000-000-000-000-000-000,7,PKO-13,1979,0,102.816,4.632940982933448,12000,9.392661928770137,23376.6824103363,20188.4433718908,1.948056867528025,0.6668323975704361,0.0079,0.0116,0.113,0.25966,0.160048,CWH,-1.19975713829789,0,FALSE,FALSE,0.4861425455821369,-0.4460389839775659
PKO,CARTER RIVER,910-524600-00000-00000-0000-0000-000-000-000-000-000-000,7,PKO-13,1981,0,102.816,4.632940982933448,8000,8.987196820661973,6875.08137840466,23376.6824103363,0.8593851723005825,-0.1515380613383963,0.0079,0.0116,0.113,0.25966,0.160048,CWH,-0.22613906119882837,0,FALSE,FALSE,0.4861425455821369,-0.4460389839775659
PKO,CARTER RIVER,910-524600-00000-00000-0000-0000-000-000-000-000-000-000,7,PKO-13,1983,0,102.816,4.632940982933448,4000,8.294049640102028,18197.7514050384,6875.08137840466,4.549437851259601,1.515003676156317,0.0071,0.0104,0.113,0.25966,0.160048,CWH,0.10267616261581472,0,FALSE,FALSE,0.4861425455821369,-0.4618298823722552
PKO,CARTER RIVER,910-524600-00000-00000-0000-0000-000-000-000-000-000-000,7,PKO-13,1985,0,102.816,4.632940982933448,10000,9.210340371976184,8230.12209832617,18197.7514050384,0.823012209832617,-0.19478424265251945,0.0071,0.0104,0.113,0.25966,0.160048,CWH,-0.9758993397997916,0,FALSE,FALSE,0.4861425455821369,-0.4618298823722552
PKO,CARTER RIVER,910-524600-00000-00000-0000-0000-000-000-000-000-000-000,7,PKO-13,1987,0,102.816,4.632940982933448,4000,8.294049640102028,14845.2631517494,8230.12209832617,3.71131578793735,1.3113864735638037,0.0043,0.0062,0.113,0.25966,0.160048,CWH,0.8862048812919091,0,FALSE,FALSE,0.4861425455821369,-0.5170980267536678
PKO,CARTER RIVER,910-524600-00000-00000-0000-0000-000-000-000-000-000-000,7,PKO-13,1989,0,102.816,4.632940982933448,13350,9.499271663828395,18052.4268672008,14845.2631517494,1.3522417128989364,0.30176374337120593,0.0041,0.0059,0.113,0.25966,0.160048,CWH,0.15947767939610902,0,FALSE,FALSE,0.4861425455821369,-0.5210457513523401
PKO,CARTER RIVER,910-524600-00000-00000-0000-0000-000-000-000-000-000-000,7,PKO-13,1991,0,102.816,4.632940982933448,13700,9.525151111816216,37452.2706390363,18052.4268672008,2.733742382411409,1.005671506507074,0.0041,0.0059,0.113,0.25966,0.160048,CWH,-0.18487911555035336,0,FALSE,FALSE,0.4861425455821369,-0.5210457513523401
PKO,CARTER RIVER,910-524600-00000-00000-0000-0000-000-000-000-000-000-000,7,PKO-13,1993,0,102.816,4.632940982933448,35000,10.46310334047155,17053.274324396,37452.2706390363,0.4872364092684571,-0.7190058337111168,0.003,0.0044,0.113,0.25966,0.160048,CWH,-1.7567819796155162,0,FALSE,FALSE,0.4861425455821369,-0.5407843743457017
PKO,CARTER RIVER,910-524600-00000-00000-0000-0000-000-000-000-000-000-000,7,PKO-13,1995,0,102.816,4.632940982933448,15000,9.615805480084347,23552.0919304848,17053.274324396,1.57013946203232,0.4511644447350753,0.003,0.0044,0.113,0.25966,0.160048,CWH,-0.5672147431639023,0,FALSE,FALSE,0.4861425455821369,-0.5407843743457017
PKO,CARTER RIVER,910-524600-00000-00000-0000-0000-000-000-000-000-000-000,7,PKO-13,1997,0,102.816,4.632940982933448,20000,9.903487552536127,19681.45465054,23552.0919304848,0.984072732527,-0.01605546949175973,0.0026,0.0038,0.113,0.25966,0.160048,CWH,0.8907774948170872,0,FALSE,FALSE,0.4861425455821369,-0.5486798235430463
PKO,CARTER RIVER,910-524600-00000-00000-0000-0000-000-000-000-000-000-000,7,PKO-13,1999,0,102.816,4.632940982933448,18000,9.798127036878302,21835.2426758704,19681.45465054,1.2130690375483555,0.19315354305655766,0.0019,0.0027,0.113,0.25966,0.160048,CWH,1.6302835492491898,0,FALSE,FALSE,0.4861425455821369,-0.5631548137381782
PKO,CARTER RIVER,910-524600-00000-00000-0000-0000-000-000-000-000-000-000,7,PKO-13,2001,0,102.816,4.632940982933448,16000,9.680344001221918,25083.0502745538,21835.2426758704,1.5676906421596124,0.44960360792202436,0.0019,0.0027,0.113,0.25966,0.160048,CWH,1.9190067210816288,0,FALSE,FALSE,0.4861425455821369,-0.5631548137381782
PKO,CARTER RIVER,910-524600-00000-00000-0000-0000-000-000-000-000-000-000,7,PKO-13,2003,0,102.816,4.632940982933448,17000,9.740968623038354,20890.4634349511,25083.0502745538,1.2288507902912411,0.20607941580190076,0.0019,0.0027,0.113,0.25966,0.160048,CWH,0.41101277747559006,0,FALSE,FALSE,0.4861425455821369,-0.5631548137381782
PKO,CARTER RIVER,910-524600-00000-00000-0000-0000-000-000-000-000-000-000,7,PKO-13,2005,0,102.816,4.632940982933448,14000,9.546812608597396,33620.7823474117,20890.4634349511,2.40148445338655,0.8760870683922518,0.0019,0.0027,0.113,0.25966,0.160048,CWH,-0.8145696192436794,0,FALSE,FALSE,0.4861425455821369,-0.5631548137381782
PKO,CARTER RIVER,910-524600-00000-00000-0000-0000-000-000-000-000-000-000,7,PKO-13,2007,0,102.816,4.632940982933448,27000,10.203592144986466,56110.3151601344,33620.7823474117,2.0781598207457184,0.731482800569268,9e-4,0.0014,0.113,0.25966,0.160048,CWH,0.8768892458318005,0,FALSE,FALSE,0.4861425455821369,-0.580261620332425
PKO,CARTER RIVER,910-524600-00000-00000-0000-0000-000-000-000-000-000-000,7,PKO-13,2009,0,102.816,4.632940982933448,43500,10.680516217076775,14249.0357748736,56110.3151601344,0.327564040801692,-1.1160716985905037,8e-4,0.0011,0.113,0.25966,0.160048,CWH,1.604652193542091,0,FALSE,FALSE,0.4861425455821369,-0.5842093449310973
PKO,CARTER RIVER,910-524600-00000-00000-0000-0000-000-000-000-000-000-000,7,PKO-13,2011,0,102.816,4.632940982933448,12000,9.392661928770137,39231.2114751628,14249.0357748736,3.2692676229302338,1.1845659913016027,8e-4,0.0011,0.113,0.25966,0.160048,CWH,0.7408851700104637,0,FALSE,FALSE,0.4861425455821369,-0.5842093449310973
PKO,CARTER RIVER,910-524600-00000-00000-0000-0000-000-000-000-000-000-000,7,PKO-13,2013,0,102.816,4.632940982933448,30000,10.308952660644293,2242.14261300556,39231.2114751628,0.07473808710018534,-2.593765449309259,4e-4,5e-4,0.113,0.25966,0.160048,CWH,-0.5528640906240193,0,FALSE,FALSE,0.4861425455821369,-0.592104794128442
PKO,GREEN RIVER,910-533000-00000-00000-0000-0000-000-000-000-000-000-000,6,PKO-13,1955,0,179.255,5.1888093730934886,3500,8.160518247477505,44.2955210913407,6697.41298435454,0.012655863168954487,-4.369634679570714,0.0216,0.0386,0.025,0.24724,0.225292,CWH,-0.07106879047729574,0,FALSE,FALSE,0.8756977312567025,-0.09074377009705663
PKO,GREEN RIVER,910-533000-00000-00000-0000-0000-000-000-000-000-000-000,6,PKO-13,1957,0,179.255,5.1888093730934886,25,3.2188758248682006,4813.59611720924,44.2955210913407,192.5438446883696,5.260323892408324,0.0093,0.0167,0.025,0.24724,0.225292,CWH,-0.3276691034772351,0,FALSE,FALSE,0.8756977312567025,-0.37892766580013637
PKO,GREEN RIVER,910-533000-00000-00000-0000-0000-000-000-000-000-000-000,6,PKO-13,1959,0,179.255,5.1888093730934886,3500,8.160518247477505,29539.9567074604,4813.59611720924,8.439987630702971,2.1329808430502717,0.0093,0.0167,0.025,0.24724,0.225292,CWH,0.7824977620566573,0,FALSE,FALSE,0.8756977312567025,-0.37892766580013637
PKO,GREEN RIVER,910-533000-00000-00000-0000-0000-000-000-000-000-000-000,6,PKO-13,1961,0,179.255,5.1888093730934886,15000,9.615805480084347,68679.6702883687,29539.9567074604,4.578644685891247,1.5214030342220164,0.0093,0.0167,0.025,0.24724,0.225292,CWH,0.00583928468743269,0,FALSE,FALSE,0.8756977312567025,-0.37892766580013637
PKO,GREEN RIVER,910-533000-00000-00000-0000-0000-000-000-000-000-000-000,6,PKO-13,1963,0,179.255,5.1888093730934886,35000,10.46310334047155,45600.8928144083,68679.6702883687,1.302882651840237,0.26457923410259526,0.0093,0.0167,0.025,0.24724,0.225292,CWH,0.5797944041154652,0,FALSE,FALSE,0.8756977312567025,-0.37892766580013637
PKO,GREEN RIVER,910-533000-00000-00000-0000-0000-000-000-000-000-000-000,6,PKO-13,1965,0,179.255,5.1888093730934886,15000,9.615805480084347,5092.34646588136,45600.8928144083,0.33948976439209066,-1.0803114815038852,0.0093,0.0167,0.025,0.24724,0.225292,CWH,-0.7093794641235007,0,FALSE,FALSE,0.8756977312567025,-0.37892766580013637
PKO,GREEN RIVER,910-533000-00000-00000-0000-0000-000-000-000-000-000-000,6,PKO-13,1967,0,179.255,5.1888093730934886,3500,8.160518247477505,9936.37777059002,5092.34646588136,2.838965077311434,1.043439576362493,0.0075,0.0134,0.025,0.24724,0.225292,CWH,-0.48089809283299456,0,FALSE,FALSE,0.8756977312567025,-0.42235263638553194
PKO,GREEN RIVER,910-533000-00000-00000-0000-0000-000-000-000-000-000-000,6,PKO-13,1969,0,179.255,5.1888093730934886,8500,9.047821442478408,20695.3381122594,9936.37777059002,2.4347456602658117,0.8898422994428842,0.0075,0.0134,0.025,0.24724,0.225292,CWH,0.09673401232408343,0,FALSE,FALSE,0.8756977312567025,-0.42235263638553194
PKO,GREEN RIVER,910-533000-00000-00000-0000-0000-000-000-000-000-000-000,6,PKO-13,1971,0,179.255,5.1888093730934886,16000,9.680344001221918,43190.0198409423,20695.3381122594,2.699376240058894,0.9930207241201345,0.0075,0.0134,0.025,0.24724,0.225292,CWH,-0.34080392906905344,0,FALSE,FALSE,0.8756977312567025,-0.42235263638553194
PKO,GREEN RIVER,910-533000-00000-00000-0000-0000-000-000-000-000-000-000,6,PKO-13,1973,0,179.255,5.1888093730934886,25000,10.126631103850338,14354.3198963999,43190.0198409423,0.574172795855996,-0.5548248898887926,0.0072,0.0129,0.025,0.24724,0.225292,CWH,-0.20355231452664888,0,FALSE,FALSE,0.8756977312567025,-0.4289321773833191
PKO,GREEN RIVER,910-533000-00000-00000-0000-0000-000-000-000-000-000-000,6,PKO-13,1975,0,179.255,5.1888093730934886,10000,9.210340371976184,3443.19547463849,14354.3198963999,0.344319547463849,-1.0661851357391077,0.0072,0.0129,0.025,0.24724,0.225292,CWH,1.2286162579398736,0,FALSE,FALSE,0.8756977312567025,-0.4289321773833191
PKO,GREEN RIVER,910-533000-00000-00000-0000-0000-000-000-000-000-000-000,6,PKO-13,1977,0,179.255,5.1888093730934886,2000,7.600902459542082,21870.8136528817,3443.19547463849,10.93540682644085,2.3920058575007697,0.003,0.0054,0.025,0.24724,0.225292,CWH,0.9724829797884954,0,FALSE,FALSE,0.8756977312567025,-0.5276252923501272
PKO,GREEN RIVER,910-533000-00000-00000-0000-0000-000-000-000-000-000-000,6,PKO-13,1979,0,179.255,5.1888093730934886,13000,9.472704636443673,43831.2795193806,21870.8136528817,3.3716368861062,1.2153983493192746,0.003,0.0054,0.025,0.24724,0.225292,CWH,-1.19975713829789,0,FALSE,FALSE,0.8756977312567025,-0.5276252923501272
PKO,GREEN RIVER,910-533000-00000-00000-0000-0000-000-000-000-000-000-000,6,PKO-13,1981,0,179.255,5.1888093730934886,15000,9.615805480084347,41250.488270428,43831.2795193806,2.750032551361867,1.0116127484672854,0.003,0.0054,0.025,0.24724,0.225292,CWH,-0.22613906119882837,0,FALSE,FALSE,0.8756977312567025,-0.5276252923501272
PKO,GREEN RIVER,910-533000-00000-00000-0000-0000-000-000-000-000-000-000,6,PKO-13,1983,0,179.255,5.1888093730934886,24000,10.085809109330082,81889.8813226727,41250.488270428,3.412078388444696,1.227321603704535,0.0029,0.0053,0.025,0.24724,0.225292,CWH,0.10267616261581472,0,FALSE,FALSE,0.8756977312567025,-0.5289412005496847
PKO,GREEN RIVER,910-533000-00000-00000-0000-0000-000-000-000-000-000-000,6,PKO-13,1985,0,179.255,5.1888093730934886,45000,10.714417768752456,13373.94840978,81889.8813226727,0.29719885355066666,-1.2133538236470947,0.0029,0.0053,0.025,0.24724,0.225292,CWH,-0.9758993397997916,0,FALSE,FALSE,0.8756977312567025,-0.5289412005496847