Species,River,WATERSHED_CDE,DFO,CU,BroodYear,hararea_m2_3005,area_km2,ln_area_km2,Spawners,logS,Recruits,Returns,recruitPerSpawner,ln_RS,ECA_age_proxy,ECA_age_proxy_forested_only,lake_cover_pct,var_eaubc_KFACTOR,var_eaubc_MELTONS_R,vri_bec_zone,npgo,portion_reporting_vri_cover1_missing,hatchery_enhancement,year_of_enhacement,ln_area_km2_std,ECA_age_proxy_forested_only_std
PKO,GREEN RIVER,910-533000-00000-00000-0000-0000-000-000-000-000-000-000,6,PKO-13,1987,0,179.255,5.1888093730934886,6500,8.779557455883728,4448.01892187249,13373.94840978,0.6843106033649985,-0.37934336594426266,9e-4,0.0016,0.025,0.24724,0.225292,CWH,0.8862048812919091,0,FALSE,FALSE,0.8756977312567025,-0.5776298039333101
PKO,GREEN RIVER,910-533000-00000-00000-0000-0000-000-000-000-000-000-000,6,PKO-13,1989,0,179.255,5.1888093730934886,4000,8.294049640102028,4348.39479282939,4448.01892187249,1.0870986982073476,0.08351240273592929,9e-4,0.0016,0.025,0.24724,0.225292,CWH,0.15947767939610902,0,FALSE,FALSE,0.8756977312567025,-0.5776298039333101
PKO,GREEN RIVER,910-533000-00000-00000-0000-0000-000-000-000-000-000-000,6,PKO-13,1991,0,179.255,5.1888093730934886,3300,8.101677747454572,963.058387860932,4348.39479282939,0.29183587510937337,-1.2315637062785227,9e-4,0.0016,0.025,0.24724,0.225292,CWH,-0.18487911555035336,0,FALSE,FALSE,0.8756977312567025,-0.5776298039333101
PKO,GREEN RIVER,910-533000-00000-00000-0000-0000-000-000-000-000-000-000,6,PKO-13,1993,0,179.255,5.1888093730934886,900,6.802394763324311,2842.21238739933,963.058387860932,3.1580137637770336,1.149943274208067,9e-4,0.0016,0.025,0.24724,0.225292,CWH,-1.7567819796155162,0,FALSE,FALSE,0.8756977312567025,-0.5776298039333101
PKO,GREEN RIVER,910-533000-00000-00000-0000-0000-000-000-000-000-000-000,6,PKO-13,1995,0,179.255,5.1888093730934886,2500,7.824046010856292,8243.23217566966,2842.21238739933,3.297292870267864,1.1931017894644502,9e-4,0.0016,0.025,0.24724,0.225292,CWH,-0.5672147431639023,0,FALSE,FALSE,0.8756977312567025,-0.5776298039333101
PKO,GREEN RIVER,910-533000-00000-00000-0000-0000-000-000-000-000-000-000,6,PKO-13,1997,0,179.255,5.1888093730934886,7000,8.85366542803745,16401.2122087833,8243.23217566966,2.3430303155404717,0.8514450982129614,4e-4,8e-4,0.025,0.24724,0.225292,CWH,0.8907774948170872,0,FALSE,FALSE,0.8756977312567025,-0.5881570695297695
PKO,GREEN RIVER,910-533000-00000-00000-0000-0000-000-000-000-000-000-000,6,PKO-13,1999,0,179.255,5.1888093730934886,15000,9.615805480084347,81882.160034514,16401.2122087833,5.4588106689676,1.6972309398328318,4e-4,8e-4,0.025,0.24724,0.225292,CWH,1.6302835492491898,0,FALSE,FALSE,0.8756977312567025,-0.5881570695297695
PKO,GREEN RIVER,910-533000-00000-00000-0000-0000-000-000-000-000-000-000,6,PKO-13,2001,0,179.255,5.1888093730934886,60000,11.002099841204238,22132.1031834298,81882.160034514,0.3688683863904967,-0.9973153750143021,4e-4,8e-4,0.025,0.24724,0.225292,CWH,1.9190067210816288,0,FALSE,FALSE,0.8756977312567025,-0.5881570695297695
PKO,GREEN RIVER,910-533000-00000-00000-0000-0000-000-000-000-000-000-000,6,PKO-13,2003,0,179.255,5.1888093730934886,15000,9.615805480084347,44765.2787891809,22132.1031834298,2.9843519192787267,1.0933826108028029,4e-4,8e-4,0.025,0.24724,0.225292,CWH,0.41101277747559006,0,FALSE,FALSE,0.8756977312567025,-0.5881570695297695
PKO,GREEN RIVER,910-533000-00000-00000-0000-0000-000-000-000-000-000-000,6,PKO-13,2005,0,179.255,5.1888093730934886,30000,10.308952660644293,49808.5664406099,44765.2787891809,1.66028554802033,0.5069896044549618,4e-4,8e-4,0.025,0.24724,0.225292,CWH,-0.8145696192436794,0,FALSE,FALSE,0.8756977312567025,-0.5881570695297695
PKO,GREEN RIVER,910-533000-00000-00000-0000-0000-000-000-000-000-000-000,6,PKO-13,2007,0,179.255,5.1888093730934886,40000,10.596634733096073,83842.9996645687,49808.5664406099,2.0960749916142176,0.7400665442606602,1e-4,3e-4,0.025,0.24724,0.225292,CWH,0.8768892458318005,0,FALSE,FALSE,0.8756977312567025,-0.5947366105275568
PKO,GREEN RIVER,910-533000-00000-00000-0000-0000-000-000-000-000-000-000,6,PKO-13,2009,0,179.255,5.1888093730934886,65000,11.082142548877775,59370.9823953068,83842.9996645687,0.9133997291585662,-0.09058167475135451,1e-4,3e-4,0.025,0.24724,0.225292,CWH,1.604652193542091,0,FALSE,FALSE,0.8756977312567025,-0.5947366105275568
PKO,GREEN RIVER,910-533000-00000-00000-0000-0000-000-000-000-000-000-000,6,PKO-13,2011,0,179.255,5.1888093730934886,50000,10.819778284410283,49692.8678685396,59370.9823953068,0.9938573573707921,-0.006161586274311762,1e-4,3e-4,0.025,0.24724,0.225292,CWH,0.7408851700104637,0,FALSE,FALSE,0.8756977312567025,-0.5947366105275568
PKO,GREEN RIVER,910-533000-00000-00000-0000-0000-000-000-000-000-000-000,6,PKO-13,2013,0,179.255,5.1888093730934886,38000,10.545341438708522,7847.49914551945,49692.8678685396,0.2065131354084066,-1.5773912588781225,1e-4,3e-4,0.025,0.24724,0.225292,CWH,-0.5528640906240193,0,FALSE,FALSE,0.8756977312567025,-0.5947366105275568
PKO,TAYLOR CREEK,910-538400-00000-00000-0000-0000-000-000-000-000-000-000,6,PKO-13,1955,0,9.905,2.2930396801505144,75,4.31748811353631,44.2955210913407,143.515992521883,0.5906069478845427,-0.526604545629519,5e-4,7e-4,0,0.26534,0.160769,CWH,-0.07106879047729574,0,FALSE,FALSE,-1.1536713071237652,-0.589472977729327
PKO,TAYLOR CREEK,910-538400-00000-00000-0000-0000-000-000-000-000-000-000,6,PKO-13,1957,0,9.905,2.2930396801505144,25,3.2188758248682006,103.148488225912,44.2955210913407,4.12593952903648,1.4172937584671266,5e-4,7e-4,0,0.26534,0.160769,CWH,-0.3276691034772351,0,FALSE,FALSE,-1.1536713071237652,-0.589472977729327
PKO,TAYLOR CREEK,910-538400-00000-00000-0000-0000-000-000-000-000-000-000,6,PKO-13,1959,0,9.905,2.2930396801505144,75,4.31748811353631,147.699783537302,103.148488225912,1.9693304471640267,0.6776936104434298,0,0,0,0.26534,0.160769,CWH,0.7824977620566573,0,FALSE,FALSE,-1.1536713071237652,-0.5986843351262291
PKO,TAYLOR CREEK,910-538400-00000-00000-0000-0000-000-000-000-000-000-000,6,PKO-13,1979,0,9.905,2.2930396801505144,10,2.302585092994046,73.0521325323009,16.823702809909,7.30521325323009,1.988588237552755,0.0252,0.0309,0,0.26534,0.160769,CWH,-1.19975713829789,0,FALSE,FALSE,-1.1536713071237652,-0.19206870146297966
PKO,TAYLOR CREEK,910-538400-00000-00000-0000-0000-000-000-000-000-000-000,6,PKO-13,1981,0,9.905,2.2930396801505144,25,3.2188758248682006,85.9385172300582,73.0521325323009,3.437540689202328,1.2347562997814936,0.0252,0.0309,0,0.26534,0.160769,CWH,-0.22613906119882837,0,FALSE,FALSE,-1.1536713071237652,-0.19206870146297966
PKO,TAYLOR CREEK,910-538400-00000-00000-0000-0000-000-000-000-000-000-000,6,PKO-13,1983,0,9.905,2.2930396801505144,50,3.912023005428146,94.6283073061996,85.9385172300582,1.892566146123992,0.6379336574354423,0.0234,0.0287,0,0.26534,0.160769,CWH,0.10267616261581472,0,FALSE,FALSE,-1.1536713071237652,-0.2210186818532434
PKO,TAYLOR CREEK,910-538400-00000-00000-0000-0000-000-000-000-000-000-000,6,PKO-13,1985,0,9.905,2.2930396801505144,52,3.9512437185814275,12.3451831474893,94.6283073061996,0.23740736822094807,-1.4379777601317332,0.0234,0.0287,0,0.26534,0.160769,CWH,-0.9758993397997916,0,FALSE,FALSE,-1.1536713071237652,-0.2210186818532434
PKO,TAYLOR CREEK,910-538400-00000-00000-0000-0000-000-000-000-000-000-000,6,PKO-13,1987,0,9.905,2.2930396801505144,6,1.791759469228055,2.22400946093625,12.3451831474893,0.37066824348937505,-0.9924478388306692,0.0234,0.0287,0,0.26534,0.160769,CWH,0.8862048812919091,0,FALSE,FALSE,-1.1536713071237652,-0.2210186818532434
PKO,TAYLOR CREEK,910-538400-00000-00000-0000-0000-000-000-000-000-000-000,6,PKO-13,1989,0,9.905,2.2930396801505144,2,0.6931471805599453,9.22386774236537,2.22400946093625,4.611933871182685,1.528647263878753,0.0113,0.0139,0,0.26534,0.160769,CWH,0.15947767939610902,0,FALSE,FALSE,-1.1536713071237652,-0.4157730953877447
PKO,TAYLOR CREEK,910-538400-00000-00000-0000-0000-000-000-000-000-000-000,6,PKO-13,2001,0,9.905,2.2930396801505144,45,3.8066624897703196,494.283637763265,61.4116200258855,10.984080839183667,2.3964470281603343,0.0078,0.0096,0,0.26534,0.160769,CWH,1.9190067210816288,0,FALSE,FALSE,-1.1536713071237652,-0.47235714796871475
PKO,TAYLOR CREEK,910-538400-00000-00000-0000-0000-000-000-000-000-000-000,6,PKO-13,2013,0,9.905,2.2930396801505144,1560,7.352441100243583,134.528556780333,2040.02299670847,0.08623625434636731,-2.45066460566859,0.0109,0.0134,0,0.26534,0.160769,CWH,-0.5528640906240193,0,FALSE,FALSE,-1.1536713071237652,-0.42235263638553194
PKO,MARSHALL CREEK,910-542400-00000-00000-0000-0000-000-000-000-000-000-000,6,PKO-13,1955,0,13.738,2.62016571579169,1500,7.313220387090301,44.2955210913407,2870.31985043766,0.029530347394227136,-3.52233681918351,0.0301,0.0409,0,0.25839,0.174158,CWH,-0.07106879047729574,0,FALSE,FALSE,-0.9244198407532935,-0.060477881507235515
PKO,MARSHALL CREEK,910-542400-00000-00000-0000-0000-000-000-000-000-000-000,6,PKO-13,1957,0,13.738,2.62016571579169,25,3.2188758248682006,103.148488225912,44.2955210913407,4.12593952903648,1.4172937584671266,0.0148,0.0201,0,0.25839,0.174158,CWH,-0.3276691034772351,0,FALSE,FALSE,-0.9244198407532935,-0.3341867870151834
PKO,MARSHALL CREEK,910-542400-00000-00000-0000-0000-000-000-000-000-000-000,6,PKO-13,1959,0,13.738,2.62016571579169,75,4.31748811353631,6892.6565650741,103.148488225912,91.90208753432134,4.520723744384625,0.0148,0.0201,0,0.25839,0.174158,CWH,0.7824977620566573,0,FALSE,FALSE,-0.9244198407532935,-0.3341867870151834
PKO,MARSHALL CREEK,910-542400-00000-00000-0000-0000-000-000-000-000-000-000,6,PKO-13,1971,0,13.738,2.62016571579169,200,5.298317366548036,1036.56047618261,258.691726403243,5.18280238091305,1.6453459101598196,0.0108,0.0147,0,0.25839,0.174158,CWH,-0.34080392906905344,0,FALSE,FALSE,-0.9244198407532935,-0.40524582979128526
PKO,MARSHALL CREEK,910-542400-00000-00000-0000-0000-000-000-000-000-000-000,6,PKO-13,1973,0,13.738,2.62016571579169,600,6.396929655216146,86.1259193783996,1036.56047618261,0.14354319896399934,-1.941119251008681,0.0108,0.0147,0,0.25839,0.174158,CWH,-0.20355231452664888,0,FALSE,FALSE,-0.9244198407532935,-0.40524582979128526
PKO,MARSHALL CREEK,910-542400-00000-00000-0000-0000-000-000-000-000-000-000,6,PKO-13,1981,0,13.738,2.62016571579169,10,2.302585092994046,171.877034460116,29.2208530129204,17.1877034460116,2.8441942122155917,0.0038,0.0051,0,0.25839,0.174158,CWH,-0.22613906119882837,0,FALSE,FALSE,-0.9244198407532935,-0.5315730169487997
PKO,MARSHALL CREEK,910-542400-00000-00000-0000-0000-000-000-000-000-000-000,6,PKO-13,1983,0,13.738,2.62016571579169,100,4.605170185988092,682.415677688939,171.877034460116,6.8241567768893905,1.9204687842644799,0.0038,0.0051,0,0.25839,0.174158,CWH,0.10267616261581472,0,FALSE,FALSE,-0.9244198407532935,-0.5315730169487997
PKO,MARSHALL CREEK,910-542400-00000-00000-0000-0000-000-000-000-000-000-000,6,PKO-13,1985,0,13.738,2.62016571579169,375,5.926926025970411,205.753052458154,682.415677688939,0.5486748065550774,-0.600249350760685,0.0038,0.0051,0,0.25839,0.174158,CWH,-0.9758993397997916,0,FALSE,FALSE,-0.9244198407532935,-0.5315730169487997
PKO,MARSHALL CREEK,910-542400-00000-00000-0000-0000-000-000-000-000-000-000,6,PKO-13,1987,0,13.738,2.62016571579169,100,4.605170185988092,222.400946093625,205.753052458154,2.22400946093625,0.7993116303973857,8e-4,0.0011,0,0.25839,0.174158,CWH,0.8862048812919091,0,FALSE,FALSE,-0.9244198407532935,-0.5842093449310973
PKO,MARSHALL CREEK,910-542400-00000-00000-0000-0000-000-000-000-000-000-000,6,PKO-13,1989,0,13.738,2.62016571579169,200,5.298317366548036,296.481463147458,222.400946093625,1.48240731573729,0.39366733103976725,8e-4,0.0011,0,0.25839,0.174158,CWH,0.15947767939610902,0,FALSE,FALSE,-0.9244198407532935,-0.5842093449310973
PKO,MARSHALL CREEK,910-542400-00000-00000-0000-0000-000-000-000-000-000-000,6,PKO-13,1991,0,13.738,2.62016571579169,225,5.41610040220442,48.1529193930466,296.481463147458,0.2140129750802071,-1.5417186345823624,8e-4,0.0011,0,0.25839,0.174158,CWH,-0.18487911555035336,0,FALSE,FALSE,-0.9244198407532935,-0.5842093449310973
PKO,MARSHALL CREEK,910-542400-00000-00000-0000-0000-000-000-000-000-000-000,6,PKO-13,1993,0,13.738,2.62016571579169,45,3.8066624897703196,68.213097297584,48.1529193930466,1.5158466066129779,0.4159740991278678,8e-4,0.0011,0,0.25839,0.174158,CWH,-1.7567819796155162,0,FALSE,FALSE,-0.9244198407532935,-0.5842093449310973
PKO,MARSHALL CREEK,910-542400-00000-00000-0000-0000-000-000-000-000-000-000,6,PKO-13,1995,0,13.738,2.62016571579169,60,4.0943445622221,47.1041838609695,68.213097297584,0.7850697310161583,-0.24198273582487217,8e-4,0.0011,0,0.25839,0.174158,CWH,-0.5672147431639023,0,FALSE,FALSE,-0.9244198407532935,-0.5842093449310973
PKO,MARSHALL CREEK,910-542400-00000-00000-0000-0000-000-000-000-000-000-000,6,PKO-13,1997,0,13.738,2.62016571579169,40,3.6888794541139363,27.3353536813055,47.1041838609695,0.6833838420326375,-0.3806985830796711,1e-4,1e-4,0,0.25839,0.174158,CWH,0.8907774948170872,0,FALSE,FALSE,-0.9244198407532935,-0.5973684269266717
PKO,MARSHALL CREEK,910-542400-00000-00000-0000-0000-000-000-000-000-000-000,6,PKO-13,1999,0,13.738,2.62016571579169,25,3.2188758248682006,682.35133362095,27.3353536813055,27.294053344837998,3.306668852266932,1e-4,1e-4,0,0.25839,0.174158,CWH,1.6302835492491898,0,FALSE,FALSE,-0.9244198407532935,-0.5973684269266717
PKO,MARSHALL CREEK,910-542400-00000-00000-0000-0000-000-000-000-000-000-000,6,PKO-13,2007,0,13.738,2.62016571579169,5500,8.612503371220562,7739.35381519095,6848.67788558387,1.4071552391256272,0.34157010546858824,0,0,0,0.25839,0.174158,CWH,0.8768892458318005,0,FALSE,FALSE,-0.9244198407532935,-0.5986843351262291
PKO,KHUTZE RIVER,910-545100-00000-00000-0000-0000-000-000-000-000-000-000,6,PKO-13,1955,0,273.961,5.61298576049095,3500,8.160518247477505,708.728337461451,6697.41298435454,0.20249381070327171,-1.5970459573309328,0.0228,0.061,0.012,0.10716,0.206696,CWH,-0.07106879047729574,0,FALSE,FALSE,1.1729625411945552,0.20401966660381027
PKO,KHUTZE RIVER,910-545100-00000-00000-0000-0000-000-000-000-000-000-000,6,PKO-13,1957,0,273.961,5.61298576049095,400,5.991464547107982,2062.96976451825,708.728337461451,5.157424411295625,1.6404373097813412,0.0182,0.0489,0.012,0.10716,0.206696,CWH,-0.3276691034772351,0,FALSE,FALSE,1.1729625411945552,0.04479477445735982
PKO,KHUTZE RIVER,910-545100-00000-00000-0000-0000-000-000-000-000-000-000,6,PKO-13,1959,0,273.961,5.61298576049095,1500,7.313220387090301,29539.9567074604,2062.96976451825,19.693304471640264,2.980278703437475,0.0182,0.0489,0.012,0.10716,0.206696,CWH,0.7824977620566573,0,FALSE,FALSE,1.1729625411945552,0.04479477445735982
PKO,KHUTZE RIVER,910-545100-00000-00000-0000-0000-000-000-000-000-000-000,6,PKO-13,1961,0,273.961,5.61298576049095,15000,9.615805480084347,29434.1444093009,29539.9567074604,1.9622762939533933,0.6741051738348136,0.0182,0.0489,0.012,0.10716,0.206696,CWH,0.00583928468743269,0,FALSE,FALSE,1.1729625411945552,0.04479477445735982
PKO,KHUTZE RIVER,910-545100-00000-00000-0000-0000-000-000-000-000-000-000,6,PKO-13,1963,0,273.961,5.61298576049095,15000,9.615805480084347,228004.464072042,29434.1444093009,15.2002976048028,2.7213150069239016,0.0171,0.0457,0.012,0.10716,0.206696,CWH,0.5797944041154652,0,FALSE,FALSE,1.1729625411945552,0.0026857120715216673
PKO,KHUTZE RIVER,910-545100-00000-00000-0000-0000-000-000-000-000-000-000,6,PKO-13,1969,0,273.961,5.61298576049095,500,6.214608098422191,19401.8794802432,584.492810034707,38.8037589604864,3.6585171223615296,0.0116,0.0312,0.012,0.10716,0.206696,CWH,0.09673401232408343,0,FALSE,FALSE,1.1729625411945552,-0.18812097686430737
PKO,KHUTZE RIVER,910-545100-00000-00000-0000-0000-000-000-000-000-000-000,6,PKO-13,1971,92471.7460959283,273.961,5.61298576049095,15000,9.615805480084347,34552.0158727538,19401.8794802432,2.3034677248502535,0.8344156939434948,0.012,0.0321,0.012,0.10716,0.206696,CWH,-0.34080392906905344,0,FALSE,FALSE,1.1729625411945552,-0.1762778030682904
PKO,KHUTZE RIVER,910-545100-00000-00000-0000-0000-000-000-000-000-000-000,6,PKO-13,1973,0,273.961,5.61298576049095,20000,9.903487552536127,11483.4559171199,34552.0158727538,0.574172795855995,-0.5548248898887944,0.0123,0.033,0.012,0.10716,0.206696,CWH,-0.20355231452664888,0,FALSE,FALSE,1.1729625411945552,-0.16443462927227337
PKO,KHUTZE RIVER,910-545100-00000-00000-0000-0000-000-000-000-000-000-000,6,PKO-13,1975,0,273.961,5.61298576049095,8000,8.987196820661973,3787.51502210234,11483.4559171199,0.4734393777627925,-0.747731404620573,0.0123,0.033,0.012,0.10716,0.206696,CWH,1.2286162579398736,0,FALSE,FALSE,1.1729625411945552,-0.16443462927227337
PKO,KHUTZE RIVER,910-545100-00000-00000-0000-0000-000-000-000-000-000-000,6,PKO-13,1977,129607.520259581,273.961,5.61298576049095,2200,7.696212639346407,13458.9622479272,3787.51502210234,6.117710112694182,1.811187861914744,0.0063,0.017,0.012,0.10716,0.206696,CWH,0.9724829797884954,0,FALSE,FALSE,1.1729625411945552,-0.37497994120146405
PKO,KHUTZE RIVER,910-545100-00000-00000-0000-0000-000-000-000-000-000-000,6,PKO-13,1979,0,273.961,5.61298576049095,8000,8.987196820661973,23376.6824103363,13458.9622479272,2.9220853012920376,1.0722975056786006,0.0063,0.017,0.012,0.10716,0.206696,CWH,-1.19975713829789,0,FALSE,FALSE,1.1729625411945552,-0.37497994120146405
PKO,KHUTZE RIVER,910-545100-00000-00000-0000-0000-000-000-000-000-000-000,6,PKO-13,1981,0,273.961,5.61298576049095,8000,8.987196820661973,120313.924122082,23376.6824103363,15.03924051526025,2.7106628195910756,0.0063,0.017,0.012,0.10716,0.206696,CWH,-0.22613906119882837,0,FALSE,FALSE,1.1729625411945552,-0.37497994120146405
PKO,KHUTZE RIVER,910-545100-00000-00000-0000-0000-000-000-000-000-000-000,6,PKO-13,1983,0,273.961,5.61298576049095,70000,11.156250521031495,181977.514050384,120313.924122082,2.599678772148343,0.9553878882208943,0.0057,0.0153,0.012,0.10716,0.206696,CWH,0.10267616261581472,0,FALSE,FALSE,1.1729625411945552,-0.39735038059394057
PKO,KHUTZE RIVER,910-545100-00000-00000-0000-0000-000-000-000-000-000-000,6,PKO-13,1985,0,273.961,5.61298576049095,100000,11.512925464970229,55553.3241637016,181977.514050384,0.555533241637016,-0.5878268307621276,0.0057,0.0154,0.012,0.10716,0.206696,CWH,-0.9758993397997916,0,FALSE,FALSE,1.1729625411945552,-0.3960344723943831
PKO,KHUTZE RIVER,910-545100-00000-00000-0000-0000-000-000-000-000-000-000,6,PKO-13,1987,0,273.961,5.61298576049095,27000,10.203592144986466,13344.0567656175,55553.3241637016,0.49422432465250005,-0.7047657663788883,0.0035,0.0093,0.012,0.10716,0.206696,CWH,0.8862048812919091,0,FALSE,FALSE,1.1729625411945552,-0.4763048725673871
PKO,KHUTZE RIVER,910-545100-00000-00000-0000-0000-000-000-000-000-000-000,6,PKO-13,1989,0,273.961,5.61298576049095,12000,9.392661928770137,9882.71543824861,13344.0567656175,0.8235596198540508,-0.19411933386235072,0.0034,0.009,0.012,0.10716,0.206696,CWH,0.15947767939610902,0,FALSE,FALSE,1.1729625411945552,-0.4802525971660594
PKO,KHUTZE RIVER,910-545100-00000-00000-0000-0000-000-000-000-000-000-000,6,PKO-13,1991,0,273.961,5.61298576049095,7500,8.922658299524402,8560.51900320829,9882.71543824861,1.1414025337611053,0.13225779898930984,0.0034,0.009,0.012,0.10716,0.206696,CWH,-0.18487911555035336,0,FALSE,FALSE,1.1729625411945552,-0.4802525971660594
PKO,KHUTZE RIVER,910-545100-00000-00000-0000-0000-000-000-000-000-000-000,6,PKO-13,1993,0,273.961,5.61298576049095,8000,8.987196820661973,22737.6990991947,8560.51900320829,2.8422123873993375,1.0445827585502434,0.0029,0.0078,0.012,0.10716,0.206696,CWH,-1.7567819796155162,0,FALSE,FALSE,1.1729625411945552,-0.49604349556074867
PKO,KHUTZE RIVER,910-545100-00000-00000-0000-0000-000-000-000-000-000-000,6,PKO-13,1995,0,273.961,5.61298576049095,20000,9.903487552536127,16486.4643513393,22737.6990991947,0.8243232175669649,-0.19319257165544174,0.0029,0.0078,0.012,0.10716,0.206696,CWH,-0.5672147431639023,0,FALSE,FALSE,1.1729625411945552,-0.49604349556074867
PKO,KHUTZE RIVER,910-545100-00000-00000-0000-0000-000-000-000-000-000-000,6,PKO-13,1997,0,273.961,5.61298576049095,14000,9.546812608597396,32802.4244175667,16486.4643513393,2.3430303155404784,0.8514450982129642,0.0011,0.0031,0.012,0.10716,0.206696,CWH,0.8907774948170872,0,FALSE,FALSE,1.1729625411945552,-0.5578911809399485