Species,River,WATERSHED_CDE,DFO,CU,BroodYear,hararea_m2_3005,area_km2,ln_area_km2,Spawners,logS,Recruits,Returns,recruitPerSpawner,ln_RS,ECA_age_proxy,ECA_age_proxy_forested_only,lake_cover_pct,var_eaubc_KFACTOR,var_eaubc_MELTONS_R,vri_bec_zone,npgo,portion_reporting_vri_cover1_missing,hatchery_enhancement,year_of_enhacement,ln_area_km2_std,ECA_age_proxy_forested_only_std
PKO,WEBSTER LAKE CREEK,915-233500-67300-00000-0000-0000-000-000-000-000-000-000,7,PKO-12,1983,0,25.078,3.2219909677683463,500,6.214608098422191,1049.68224043441,754.785261570259,2.09936448086882,0.7416346707705309,0.0021,0.0028,0.228,0.21535,0.155209,CWH,0.10267616261581472,0,FALSE,FALSE,-0.5026578698847765,-0.5618389055386208
PKO,WEBSTER LAKE CREEK,915-233500-67300-00000-0000-0000-000-000-000-000-000-000,7,PKO-12,1985,0,25.078,3.2219909677683463,650,6.476972362889683,90.6422322667029,1049.68224043441,0.13944958810261984,-1.970052118641077,0.0021,0.0028,0.228,0.21535,0.155209,CWH,-0.9758993397997916,0,FALSE,FALSE,-0.5026578698847765,-0.5618389055386208
PKO,WEBSTER LAKE CREEK,915-233500-67300-00000-0000-0000-000-000-000-000-000-000,7,PKO-12,1991,0,25.078,3.2219909677683463,2,0.6931471805599453,250.240310775244,2.83686871288191,125.120155387622,4.829274518704973,6e-4,8e-4,0.228,0.21535,0.155209,CWH,-0.18487911555035336,0,FALSE,FALSE,-0.5026578698847765,-0.5881570695297695
PKO,KWAKUSDIS RIVER,915-381700-84400-00000-0000-0000-000-000-000-000-000-000,7,PKO-12,1955,0,20.449,3.0179339815376776,7000,8.85366542803745,19929.5213205202,14288.8455549936,2.8470744743600287,1.0462919668438324,0,0,0.044,0.24145,0.196132,CWH,-0.07106879047729574,0,FALSE,FALSE,-0.6456619668372834,-0.5986843351262291
PKO,KWAKUSDIS RIVER,915-381700-84400-00000-0000-0000-000-000-000-000-000-000,7,PKO-12,1957,0,20.449,3.0179339815376776,10000,9.210340371976184,11171.2968951606,19929.5213205202,1.11712968951606,0.11076261855423351,0,0,0.044,0.24145,0.196132,CWH,-0.3276691034772351,0,FALSE,FALSE,-0.6456619668372834,-0.5986843351262291
PKO,KWAKUSDIS RIVER,915-381700-84400-00000-0000-0000-000-000-000-000-000-000,7,PKO-12,1959,0,20.449,3.0179339815376776,7500,8.922658299524402,11470.0162545959,11171.2968951606,1.5293355006127867,0.42483332773801913,0,0,0.044,0.24145,0.196132,CWH,0.7824977620566573,0,FALSE,FALSE,-0.6456619668372834,-0.5986843351262291
PKO,KWAKUSDIS RIVER,915-381700-84400-00000-0000-0000-000-000-000-000-000-000,7,PKO-12,1961,0,20.449,3.0179339815376776,5000,8.517193191416238,18046.0751777873,11470.0162545959,3.6092150355574604,1.2834903070270876,0,0,0.044,0.24145,0.196132,CWH,0.00583928468743269,0,FALSE,FALSE,-0.6456619668372834,-0.5986843351262291
PKO,KWAKUSDIS RIVER,915-381700-84400-00000-0000-0000-000-000-000-000-000-000,7,PKO-12,1963,0,20.449,3.0179339815376776,10000,9.210340371976184,1815.21387968102,18046.0751777873,0.181521387968102,-1.7063817921751852,0,0,0.044,0.24145,0.196132,CWH,0.5797944041154652,0,FALSE,FALSE,-0.6456619668372834,-0.5986843351262291
PKO,KWAKUSDIS RIVER,915-381700-84400-00000-0000-0000-000-000-000-000-000-000,7,PKO-12,1965,0,20.449,3.0179339815376776,750,6.620073206530356,43415.1273464237,1815.21387968102,57.88683646189827,4.05849000919569,0,0,0.044,0.24145,0.196132,CWH,-0.7093794641235007,0,FALSE,FALSE,-0.6456619668372834,-0.5986843351262291
PKO,KWAKUSDIS RIVER,915-381700-84400-00000-0000-0000-000-000-000-000-000-000,7,PKO-12,1967,0,20.449,3.0179339815376776,20000,9.903487552536127,17931.6142922318,43415.1273464237,0.89658071461159,-0.10916695695946205,0,0,0.044,0.24145,0.196132,CWH,-0.48089809283299456,0,FALSE,FALSE,-0.6456619668372834,-0.5986843351262291
PKO,KWAKUSDIS RIVER,915-381700-84400-00000-0000-0000-000-000-000-000-000-000,7,PKO-12,1969,0,20.449,3.0179339815376776,10000,9.210340371976184,34846.3703052658,17931.6142922318,3.48463703052658,1.2483638868590532,0,0,0.044,0.24145,0.196132,CWH,0.09673401232408343,0,FALSE,FALSE,-0.6456619668372834,-0.5986843351262291
PKO,KWAKUSDIS RIVER,915-381700-84400-00000-0000-0000-000-000-000-000-000-000,7,PKO-12,1971,0,20.449,3.0179339815376776,25000,10.126631103850338,5691.72155094153,34846.3703052658,0.2276688620376612,-1.4798630652079645,0,0,0.044,0.24145,0.196132,CWH,-0.34080392906905344,0,FALSE,FALSE,-0.6456619668372834,-0.5986843351262291
PKO,KWAKUSDIS RIVER,915-381700-84400-00000-0000-0000-000-000-000-000-000-000,7,PKO-12,1973,0,20.449,3.0179339815376776,3000,8.006367567650246,7668.17460195548,5691.72155094153,2.556058200651827,0.9384663064641211,0,0,0.044,0.24145,0.196132,CWH,-0.20355231452664888,0,FALSE,FALSE,-0.6456619668372834,-0.5986843351262291
PKO,KWAKUSDIS RIVER,915-381700-84400-00000-0000-0000-000-000-000-000-000-000,7,PKO-12,1975,0,20.449,3.0179339815376776,5000,8.517193191416238,27410.0285733298,7668.17460195548,5.48200571466596,1.701471040321853,0,0,0.044,0.24145,0.196132,CWH,1.2286162579398736,0,FALSE,FALSE,-0.6456619668372834,-0.5986843351262291
PKO,KWAKUSDIS RIVER,915-381700-84400-00000-0000-0000-000-000-000-000-000-000,7,PKO-12,1977,140203.699586144,20.449,3.0179339815376776,14000,9.546812608597396,12109.4606235836,27410.0285733298,0.8649614731131143,-0.14507031279580707,0.0069,0.0072,0.044,0.24145,0.196132,CWH,0.9724829797884954,0,FALSE,FALSE,-0.6456619668372834,-0.5039389447580934
PKO,KWAKUSDIS RIVER,915-381700-84400-00000-0000-0000-000-000-000-000-000-000,7,PKO-12,1979,0,20.449,3.0179339815376776,8000,8.987196820661973,12416.4388153572,12109.4606235836,1.55205485191965,0.4395797638682206,0.0069,0.0072,0.044,0.24145,0.196132,CWH,-1.19975713829789,0,FALSE,FALSE,-0.6456619668372834,-0.5039389447580934
PKO,KWAKUSDIS RIVER,915-381700-84400-00000-0000-0000-000-000-000-000-000-000,7,PKO-12,1981,0,20.449,3.0179339815376776,6000,8.699514748210191,12831.3494466944,12416.4388153572,2.1385582411157333,0.7601318828782618,0.0069,0.0072,0.044,0.24145,0.196132,CWH,-0.22613906119882837,0,FALSE,FALSE,-0.6456619668372834,-0.5039389447580934
PKO,KWAKUSDIS RIVER,915-381700-84400-00000-0000-0000-000-000-000-000-000-000,7,PKO-12,1983,0,20.449,3.0179339815376776,8500,9.047821442478408,24223.4363177172,12831.3494466944,2.849816037378494,1.047254443908981,0.0215,0.0226,0.044,0.24145,0.196132,CWH,0.10267616261581472,0,FALSE,FALSE,-0.6456619668372834,-0.3012890820262473
PKO,KWAKUSDIS RIVER,915-381700-84400-00000-0000-0000-000-000-000-000-000-000,7,PKO-12,1985,0,20.449,3.0179339815376776,15000,9.615805480084347,4156.852771751,24223.4363177172,0.2771235181167333,-1.2832919584059819,0.0215,0.0226,0.044,0.24145,0.196132,CWH,-0.9758993397997916,0,FALSE,FALSE,-0.6456619668372834,-0.3012890820262473
PKO,KWAKUSDIS RIVER,915-381700-84400-00000-0000-0000-000-000-000-000-000-000,7,PKO-12,1987,67838.6952416759,20.449,3.0179339815376776,2293,7.737616282857904,2384.67869976095,4156.852771751,1.0399819885568906,0.03920339430801347,0.0249,0.026,0.044,0.24145,0.196132,CWH,0.8862048812919091,0,FALSE,FALSE,-0.6456619668372834,-0.25654820324129435
PKO,KWAKUSDIS RIVER,915-381700-84400-00000-0000-0000-000-000-000-000-000-000,7,PKO-12,1989,0,20.449,3.0179339815376776,2000,7.600902459542082,1702.12122772915,2384.67869976095,0.851060613864575,-0.16127192631238602,0.0231,0.0242,0.044,0.24145,0.196132,CWH,0.15947767939610902,0,FALSE,FALSE,-0.6456619668372834,-0.28023455083332827
PKO,KWAKUSDIS RIVER,915-381700-84400-00000-0000-0000-000-000-000-000-000-000,7,PKO-12,1991,0,20.449,3.0179339815376776,1200,7.090076835776092,2658.80330198696,1702.12122772915,2.2156694183224666,0.7955545782993046,0.0231,0.0242,0.044,0.24145,0.196132,CWH,-0.18487911555035336,0,FALSE,FALSE,-0.6456619668372834,-0.28023455083332827
PKO,KWAKUSDIS RIVER,915-381700-84400-00000-0000-0000-000-000-000-000-000-000,7,PKO-12,1997,648777.618483857,20.449,3.0179339815376776,15000,9.615805480084347,5655.21142102339,17157.2539613266,0.37701409473489267,-0.9754727056682845,0.068,0.0712,0.044,0.24145,0.196132,CWH,0.8907774948170872,0,FALSE,FALSE,-0.6456619668372834,0.3382423029586693
PKO,KWAKUSDIS RIVER,915-381700-84400-00000-0000-0000-000-000-000-000-000-000,7,PKO-12,1999,193.872587509532,20.449,3.0179339815376776,5000,8.517193191416238,10995.2554961127,5655.21142102339,2.1990510992225403,0.7880259487844663,0.0843,0.0883,0.044,0.24145,0.196132,CWH,1.6302835492491898,0,FALSE,FALSE,-0.6456619668372834,0.5632626050829919
PKO,KWAKUSDIS RIVER,915-381700-84400-00000-0000-0000-000-000-000-000-000-000,7,PKO-12,2001,142820.450088474,20.449,3.0179339815376776,8600,9.0595174822416,18733.4159157258,10995.2554961127,2.178304176247186,0.7785466732751222,0.1066,0.1117,0.044,0.24145,0.196132,CWH,1.9190067210816288,0,FALSE,FALSE,-0.6456619668372834,0.8711851237794332
PKO,KWAKUSDIS RIVER,915-381700-84400-00000-0000-0000-000-000-000-000-000-000,7,PKO-12,2003,119201.53306303,20.449,3.0179339815376776,15000,9.615805480084347,6494.66571185589,18733.4159157258,0.432977714123726,-0.8370690208406274,0.1209,0.1267,0.044,0.24145,0.196132,CWH,0.41101277747559006,0,FALSE,FALSE,-0.6456619668372834,1.0685713537130497
PKO,KWAKUSDIS RIVER,915-381700-84400-00000-0000-0000-000-000-000-000-000-000,7,PKO-12,2005,6886.31275509484,20.449,3.0179339815376776,5200,8.556413904569519,5359.45997056049,6494.66571185589,1.0306653789539404,0.03020459265842673,0.1213,0.127,0.044,0.24145,0.196132,CWH,-0.8145696192436794,0,FALSE,FALSE,-0.6456619668372834,1.072519078311722
PKO,KWAKUSDIS RIVER,915-381700-84400-00000-0000-0000-000-000-000-000-000-000,7,PKO-12,2007,0,20.449,3.0179339815376776,4600,8.433811582477187,13965.573318573901,5359.45997056049,3.0359941996899784,1.1105389490210111,0.1182,0.1238,0.044,0.24145,0.196132,CWH,0.8768892458318005,0,FALSE,FALSE,-0.6456619668372834,1.0304100159258835
PKO,KWAKUSDIS RIVER,915-381700-84400-00000-0000-0000-000-000-000-000-000-000,7,PKO-12,2013,0,20.449,3.0179339815376776,16220,9.694000327669404,7640.91609251274,19609.001751866,0.4710799070599716,-0.7527275453001996,0.094,0.0984,0.044,0.24145,0.196132,CWH,-0.5528640906240193,0,FALSE,FALSE,-0.6456619668372834,0.6961693332382934
PKO,BULLEY BAY CREEK,915-477000-57700-00000-0000-0000-000-000-000-000-000-000,7,PKO-12,1955,0,9.006,2.19789102187938,75,4.31748811353631,797.180852820808,153.094773803503,10.629078037610773,2.3635934564767718,0.0037,0.0045,0.027,0.2585,0.104176,CWH,-0.07106879047729574,0,FALSE,FALSE,-1.220351934940767,-0.5394684661461443
PKO,BULLEY BAY CREEK,915-477000-57700-00000-0000-0000-000-000-000-000-000-000,7,PKO-12,1957,0,9.006,2.19789102187938,400,5.991464547107982,111.712968951606,797.180852820808,0.279282422379015,-1.2755317425656572,0.0037,0.0045,0.027,0.2585,0.104176,CWH,-0.3276691034772351,0,FALSE,FALSE,-1.220351934940767,-0.5394684661461443
PKO,BULLEY BAY CREEK,915-477000-57700-00000-0000-0000-000-000-000-000-000-000,7,PKO-12,1959,0,9.006,2.19789102187938,75,4.31748811353631,172.050243818938,111.712968951606,2.294003250919173,0.8302984358461805,0.0028,0.0034,0.027,0.2585,0.104176,CWH,0.7824977620566573,0,FALSE,FALSE,-1.220351934940767,-0.5539434563412762
PKO,BULLEY BAY CREEK,915-477000-57700-00000-0000-0000-000-000-000-000-000-000,7,PKO-12,1961,0,9.006,2.19789102187938,75,4.31748811353631,135.345563833405,172.050243818938,1.8046075177787335,0.5903431264671442,0.0028,0.0034,0.027,0.2585,0.104176,CWH,0.00583928468743269,0,FALSE,FALSE,-1.220351934940767,-0.5539434563412762
PKO,BULLEY BAY CREEK,915-477000-57700-00000-0000-0000-000-000-000-000-000-000,7,PKO-12,1963,0,9.006,2.19789102187938,75,4.31748811353631,60.5071293227007,135.345563833405,0.806761724302676,-0.21472691539746763,0.0028,0.0034,0.027,0.2585,0.104176,CWH,0.5797944041154652,0,FALSE,FALSE,-1.220351934940767,-0.5539434563412762
PKO,BULLEY BAY CREEK,915-477000-57700-00000-0000-0000-000-000-000-000-000-000,7,PKO-12,1971,0,9.006,2.19789102187938,1000,6.907755278982137,379.448103396102,1393.85481221063,0.379448103396102,-0.9690374414419738,9e-4,0.0011,0.027,0.2585,0.104176,CWH,-0.34080392906905344,0,FALSE,FALSE,-1.220351934940767,-0.5842093449310973
PKO,BULLEY BAY CREEK,915-477000-57700-00000-0000-0000-000-000-000-000-000-000,7,PKO-12,1973,0,9.006,2.19789102187938,200,5.298317366548036,383.408730097774,379.448103396102,1.9170436504888702,0.6507842340123402,9e-4,0.0011,0.027,0.2585,0.104176,CWH,-0.20355231452664888,0,FALSE,FALSE,-1.220351934940767,-0.5842093449310973
PKO,BULLEY BAY CREEK,915-477000-57700-00000-0000-0000-000-000-000-000-000-000,7,PKO-12,1975,0,9.006,2.19789102187938,250,5.521460917862246,3132.57469409483,383.408730097774,12.53029877637932,2.5281496135063195,9e-4,0.0011,0.027,0.2585,0.104176,CWH,1.2286162579398736,0,FALSE,FALSE,-1.220351934940767,-0.5842093449310973
PKO,BULLEY BAY CREEK,915-477000-57700-00000-0000-0000-000-000-000-000-000-000,7,PKO-12,1977,0,9.006,2.19789102187938,1600,7.3777589082278725,4.54104773384386,3132.57469409483,0.0028381548336524126,-5.864601144420145,9e-4,0.0011,0.027,0.2585,0.104176,CWH,0.9724829797884954,0,FALSE,FALSE,-1.220351934940767,-0.5842093449310973
PKO,BULLEY BAY CREEK,915-477000-57700-00000-0000-0000-000-000-000-000-000-000,7,PKO-12,1979,0,9.006,2.19789102187938,3,1.0986122886681098,827.762587690478,4.54104773384386,275.9208625634927,5.620114094759871,9e-4,0.0011,0.027,0.2585,0.104176,CWH,-1.19975713829789,0,FALSE,FALSE,-1.220351934940767,-0.5842093449310973
PKO,BULLEY BAY CREEK,915-477000-57700-00000-0000-0000-000-000-000-000-000-000,7,PKO-12,1981,0,9.006,2.19789102187938,400,5.991464547107982,15.0957052314052,827.762587690478,0.037739263078513,-3.277054265503889,9e-4,0.0011,0.027,0.2585,0.104176,CWH,-0.22613906119882837,0,FALSE,FALSE,-1.220351934940767,-0.5842093449310973
PKO,BULLEY BAY CREEK,915-477000-57700-00000-0000-0000-000-000-000-000-000-000,7,PKO-12,1983,0,9.006,2.19789102187938,10,2.302585092994046,1.61489575451448,15.0957052314052,0.161489575451448,-1.823314686691004,9e-4,0.0011,0.027,0.2585,0.104176,CWH,0.10267616261581472,0,FALSE,FALSE,-1.220351934940767,-0.5842093449310973
PKO,BULLEY BAY CREEK,915-477000-57700-00000-0000-0000-000-000-000-000-000-000,7,PKO-12,1989,0,9.006,2.19789102187938,10,2.302585092994046,4.25530306932287,11.9233934988047,0.425530306932287,-0.8544191068723325,0.0167,0.0203,0.027,0.2585,0.104176,CWH,0.15947767939610902,0,FALSE,FALSE,-1.220351934940767,-0.3315549706160685
PKO,BULLEY BAY CREEK,915-477000-57700-00000-0000-0000-000-000-000-000-000-000,7,PKO-12,1991,0,9.006,2.19789102187938,3,1.0986122886681098,6.25600776938109,4.25530306932287,2.08533592312703,0.7349299564828712,0.0167,0.0203,0.027,0.2585,0.104176,CWH,-0.18487911555035336,0,FALSE,FALSE,-1.220351934940767,-0.3315549706160685
PKO,BULLEY BAY CREEK,915-477000-57700-00000-0000-0000-000-000-000-000-000-000,7,PKO-12,2013,0,9.006,2.19789102187938,900,6.802394763324311,4.56174095075388,1088.04571989392,0.005068601056393201,-5.284690425214272,0.0041,0.005,0.027,0.2585,0.104176,CWH,-0.5528640906240193,0,FALSE,FALSE,-1.220351934940767,-0.5328889251483571
PKO,KITASOO CREEK,915-482000-87400-00000-0000-0000-000-000-000-000-000-000,7,PKO-12,1955,0,6.356,1.8493992486744695,1500,7.313220387090301,49.8238033013005,3061.89547607005,0.033215868867533666,-3.4047275393170007,0.0499,0.0682,0.072,0.09027,0.068761,CWH,-0.07106879047729574,0,FALSE,FALSE,-1.4645766108173923,0.29876505697194605
PKO,KITASOO CREEK,915-482000-87400-00000-0000-0000-000-000-000-000-000-000,7,PKO-12,1957,0,6.356,1.8493992486744695,25,3.2188758248682006,37.2376563172019,49.8238033013005,1.4895062526880762,0.3984446910060119,0.0499,0.0682,0.072,0.09027,0.068761,CWH,-0.3276691034772351,0,FALSE,FALSE,-1.4645766108173923,0.29876505697194605
PKO,KITASOO CREEK,915-482000-87400-00000-0000-0000-000-000-000-000-000-000,7,PKO-12,1967,0,6.356,1.8493992486744695,200,5.298317366548036,1434.52914337854,434.151273464237,7.1726457168927,1.970274584720371,0.0356,0.0486,0.072,0.09027,0.068761,CWH,-0.48089809283299456,0,FALSE,FALSE,-1.4645766108173923,0.04084704985868747
PKO,KITASOO CREEK,915-482000-87400-00000-0000-0000-000-000-000-000-000-000,7,PKO-12,1969,0,6.356,1.8493992486744695,800,6.684611727667927,4181.56443663189,1434.52914337854,5.226955545789862,1.653828994967216,0.0119,0.0162,0.072,0.09027,0.068761,CWH,0.09673401232408343,0,FALSE,FALSE,-1.4645766108173923,-0.3855072067979236
PKO,KITASOO CREEK,915-482000-87400-00000-0000-0000-000-000-000-000-000-000,7,PKO-12,1971,0,6.356,1.8493992486744695,3000,8.006367567650246,379.448103396102,4181.56443663189,0.126482701132034,-2.0676497301100834,0.0119,0.0162,0.072,0.09027,0.068761,CWH,-0.34080392906905344,0,FALSE,FALSE,-1.4645766108173923,-0.3855072067979236
PKO,KITASOO CREEK,915-482000-87400-00000-0000-0000-000-000-000-000-000-000,7,PKO-12,1983,0,6.356,1.8493992486744695,700,6.551080335043404,322.979150902895,1056.69936619836,0.4613987870041357,-0.7734925621923293,0.018,0.0245,0.072,0.09027,0.068761,CWH,0.10267616261581472,0,FALSE,FALSE,-1.4645766108173923,-0.27628682623465595
PKO,KITASOO CREEK,915-482000-87400-00000-0000-0000-000-000-000-000-000-000,7,PKO-12,1985,0,6.356,1.8493992486744695,200,5.298317366548036,271.926696800109,322.979150902895,1.359633484000545,0.3072151663686799,0.018,0.0245,0.072,0.09027,0.068761,CWH,-0.9758993397997916,0,FALSE,FALSE,-1.4645766108173923,-0.27628682623465595
PKO,KITASOO CREEK,915-482000-87400-00000-0000-0000-000-000-000-000-000-000,7,PKO-12,1987,0,6.356,1.8493992486744695,150,5.0106352940962555,357.701804964142,271.926696800109,2.3846786997609466,0.8690643981837793,0.018,0.0245,0.072,0.09027,0.068761,CWH,0.8862048812919091,0,FALSE,FALSE,-1.4645766108173923,-0.27628682623465595
PKO,KITASOO CREEK,915-482000-87400-00000-0000-0000-000-000-000-000-000-000,7,PKO-12,1999,0,6.356,1.8493992486744695,150,5.0106352940962555,1278.51808094334,169.656342630702,8.5234538729556,2.142821642844988,0.0069,0.0094,0.072,0.09027,0.068761,CWH,1.6302835492491898,0,FALSE,FALSE,-1.4645766108173923,-0.47498896436782967
PKO,KITASOO CREEK,915-482000-87400-00000-0000-0000-000-000-000-000-000-000,7,PKO-12,2009,0,6.356,1.8493992486744695,1463,7.288244401020124,658.78664905211,1702.63614708946,0.4502984614163431,-0.7978446684773768,0.0055,0.0075,0.072,0.09027,0.068761,CWH,1.604652193542091,0,FALSE,FALSE,-1.4645766108173923,-0.49999122015942105
PKO,KITASOO CREEK,915-482000-87400-00000-0000-0000-000-000-000-000-000-000,7,PKO-12,2011,0,6.356,1.8493992486744695,578,6.359573868672378,1349.17669266846,658.78664905211,2.3342157312603113,0.847675959438881,0.0055,0.0075,0.072,0.09027,0.068761,CWH,0.7408851700104637,0,FALSE,FALSE,-1.4645766108173923,-0.49999122015942105
PKO,LAGOON CREEK,915-486500-05300-00000-0000-0000-000-000-000-000-000-000,7,PKO-12,1959,0,38.411,3.6483438769056598,75,4.31748811353631,57.3500812729795,111.712968951606,0.7646677503063933,-0.26831385282192616,0.0021,0.0027,0.166,0.28049,0.131619,CWH,0.7824977620566573,0,FALSE,FALSE,-0.20386774326135243,-0.5631548137381782
PKO,LAGOON CREEK,915-486500-05300-00000-0000-0000-000-000-000-000-000-000,7,PKO-12,1961,0,38.411,3.6483438769056598,25,3.2188758248682006,45.1151879444682,57.3500812729795,1.804607517778728,0.590343126467141,0.0021,0.0027,0.166,0.28049,0.131619,CWH,0.00583928468743269,0,FALSE,FALSE,-0.20386774326135243,-0.5631548137381782
PKO,LAGOON CREEK,915-486500-05300-00000-0000-0000-000-000-000-000-000-000,7,PKO-12,1969,0,38.411,3.6483438769056598,30,3.4011973816621555,278.770962442126,53.7948428766954,9.292365414737533,2.229193139870778,4e-4,5e-4,0.166,0.28049,0.131619,CWH,0.09673401232408343,0,FALSE,FALSE,-0.20386774326135243,-0.592104794128442
PKO,LAGOON CREEK,915-486500-05300-00000-0000-0000-000-000-000-000-000-000,7,PKO-12,1971,0,38.411,3.6483438769056598,200,5.298317366548036,948.620258490255,278.770962442126,4.743101292451275,1.5566912028662816,4e-4,5e-4,0.166,0.28049,0.131619,CWH,-0.34080392906905344,0,FALSE,FALSE,-0.20386774326135243,-0.592104794128442
PKO,LAGOON CREEK,915-486500-05300-00000-0000-0000-000-000-000-000-000-000,7,PKO-12,1973,0,38.411,3.6483438769056598,500,6.214608098422191,536.772222136884,948.620258490255,1.073544444273768,0.07096573875939875,4e-4,5e-4,0.166,0.28049,0.131619,CWH,-0.20355231452664888,0,FALSE,FALSE,-0.20386774326135243,-0.592104794128442