Species,River,WATERSHED_CDE,DFO,CU,BroodYear,hararea_m2_3005,area_km2,ln_area_km2,Spawners,logS,Recruits,Returns,recruitPerSpawner,ln_RS,ECA_age_proxy,ECA_age_proxy_forested_only,lake_cover_pct,var_eaubc_KFACTOR,var_eaubc_MELTONS_R,vri_bec_zone,npgo,portion_reporting_vri_cover1_missing,hatchery_enhancement,year_of_enhacement,ln_area_km2_std,ECA_age_proxy_forested_only_std
PKO,WINDY BAY CREEK,915-488000-41400-00000-0000-0000-000-000-000-000-000-000,7,PKO-13,2007,0,38.757,3.657311384646274,500,6.214608098422191,8384.29996645687,622.607080507624,16.76859993291374,2.8195080859404964,0.0036,0.0041,0.021,0.12816,0.243198,CWH,0.8768892458318005,0,FALSE,FALSE,-0.19758327160444228,-0.544732098944374
PKO,WINDY BAY CREEK,915-488000-41400-00000-0000-0000-000-000-000-000-000-000,7,PKO-13,2013,0,38.757,3.657311384646274,3600,8.1886891244442,784.749914551945,4707.74537701954,0.2179860873755403,-1.5233240376078467,0.0023,0.0027,0.021,0.12816,0.243198,CWH,-0.5528640906240193,0,FALSE,FALSE,-0.19758327160444228,-0.5631548137381782
PKO,CANOONA RIVER,915-488300-84200-00000-0000-0000-000-000-000-000-000-000,6,PKO-13,1955,0,122.863,4.811069913474456,35000,10.46310334047155,26577.3126548044,66974.1298435454,0.7593517901372685,-0.2752901173486138,0.0102,0.015,0.122,0.28283,0.099321,CWH,-0.07106879047729574,0,FALSE,FALSE,0.6109761389997005,-0.4012981051926129
PKO,CANOONA RIVER,915-488300-84200-00000-0000-0000-000-000-000-000-000-000,6,PKO-13,1957,0,122.863,4.811069913474456,15000,9.615805480084347,48135.9611720924,26577.3126548044,3.2090640781394932,1.1659793301862231,0.0071,0.0105,0.122,0.28283,0.099321,CWH,-0.3276691034772351,0,FALSE,FALSE,0.6109761389997005,-0.46051397417269774
PKO,CANOONA RIVER,915-488300-84200-00000-0000-0000-000-000-000-000-000-000,6,PKO-13,1959,0,122.863,4.811069913474456,35000,10.46310334047155,147699.783537302,48135.9611720924,4.2199938153514855,1.4398336624903265,0.0071,0.0105,0.122,0.28283,0.099321,CWH,0.7824977620566573,0,FALSE,FALSE,0.6109761389997005,-0.46051397417269774
PKO,CANOONA RIVER,915-488300-84200-00000-0000-0000-000-000-000-000-000-000,6,PKO-13,1961,0,122.863,4.811069913474456,75000,11.225243392518447,68679.6702883687,147699.783537302,0.9157289371782493,-0.08803487821208408,0.0071,0.0105,0.122,0.28283,0.099321,CWH,0.00583928468743269,0,FALSE,FALSE,0.6109761389997005,-0.46051397417269774
PKO,CANOONA RIVER,915-488300-84200-00000-0000-0000-000-000-000-000-000-000,6,PKO-13,1963,0,122.863,4.811069913474456,35000,10.46310334047155,106402.083233619,68679.6702883687,3.040059520960543,1.1118770944897955,0.0071,0.0105,0.122,0.28283,0.099321,CWH,0.5797944041154652,0,FALSE,FALSE,0.6109761389997005,-0.46051397417269774
PKO,CANOONA RIVER,915-488300-84200-00000-0000-0000-000-000-000-000-000-000,6,PKO-13,1965,0,122.863,4.811069913474456,35000,10.46310334047155,36.373903327724,106402.083233619,0.0010392543807921143,-6.869251764500393,0.0071,0.0105,0.122,0.28283,0.099321,CWH,-0.7093794641235007,0,FALSE,FALSE,0.6109761389997005,-0.46051397417269774
PKO,CANOONA RIVER,915-488300-84200-00000-0000-0000-000-000-000-000-000-000,6,PKO-13,1967,0,122.863,4.811069913474456,25,3.2188758248682006,11689.8562006941,36.373903327724,467.59424802776397,6.1476009284695685,0.0039,0.0058,0.122,0.28283,0.099321,CWH,-0.48089809283299456,0,FALSE,FALSE,0.6109761389997005,-0.5223616595518975
PKO,CANOONA RIVER,915-488300-84200-00000-0000-0000-000-000-000-000-000-000,6,PKO-13,1969,0,122.863,4.811069913474456,10000,9.210340371976184,19401.8794802432,11689.8562006941,1.9401879480243198,0.6627848488075386,0.0039,0.0058,0.122,0.28283,0.099321,CWH,0.09673401232408343,0,FALSE,FALSE,0.6109761389997005,-0.5223616595518975
PKO,CANOONA RIVER,915-488300-84200-00000-0000-0000-000-000-000-000-000-000,6,PKO-13,1971,0,122.863,4.811069913474456,15000,9.615805480084347,25914.0119045654,19401.8794802432,1.7276007936376934,0.5467336214917157,0.0039,0.0058,0.122,0.28283,0.099321,CWH,-0.34080392906905344,0,FALSE,FALSE,0.6109761389997005,-0.5223616595518975
PKO,CANOONA RIVER,915-488300-84200-00000-0000-0000-000-000-000-000-000-000,6,PKO-13,1973,0,122.863,4.811069913474456,15000,9.615805480084347,4306.29596891998,25914.0119045654,0.28708639792799867,-1.2479720704487356,0.0039,0.0058,0.122,0.28283,0.099321,CWH,-0.20355231452664888,0,FALSE,FALSE,0.6109761389997005,-0.5223616595518975
PKO,CANOONA RIVER,915-488300-84200-00000-0000-0000-000-000-000-000-000-000,6,PKO-13,1975,0,122.863,4.811069913474456,3000,8.006367567650246,4303.99434329811,4306.29596891998,1.43466478109937,0.3609312199010373,0.0039,0.0058,0.122,0.28283,0.099321,CWH,1.2286162579398736,0,FALSE,FALSE,0.6109761389997005,-0.5223616595518975
PKO,CANOONA RIVER,915-488300-84200-00000-0000-0000-000-000-000-000-000-000,6,PKO-13,1977,0,122.863,4.811069913474456,2500,7.824046010856292,25235.5542148635,4303.99434329811,10.0942216859454,2.311963149827233,0.0014,0.0021,0.122,0.28283,0.099321,CWH,0.9724829797884954,0,FALSE,FALSE,0.6109761389997005,-0.5710502629355229
PKO,CANOONA RIVER,915-488300-84200-00000-0000-0000-000-000-000-000-000-000,6,PKO-13,1979,0,122.863,4.811069913474456,15000,9.615805480084347,23376.6824103363,25235.5542148635,1.55844549402242,0.4436888462562263,0.0014,0.0021,0.122,0.28283,0.099321,CWH,-1.19975713829789,0,FALSE,FALSE,0.6109761389997005,-0.5710502629355229
PKO,CANOONA RIVER,915-488300-84200-00000-0000-0000-000-000-000-000-000-000,6,PKO-13,1981,0,122.863,4.811069913474456,8000,8.987196820661973,21484.6293075146,23376.6824103363,2.685578663439325,0.9878962218499702,0.0014,0.0021,0.122,0.28283,0.099321,CWH,-0.22613906119882837,0,FALSE,FALSE,0.6109761389997005,-0.5710502629355229
PKO,CANOONA RIVER,915-488300-84200-00000-0000-0000-000-000-000-000-000-000,6,PKO-13,1983,0,122.863,4.811069913474456,12500,9.433483923290392,36395.5028100768,21484.6293075146,2.911640224806144,1.0687165735278974,0.0014,0.0021,0.122,0.28283,0.099321,CWH,0.10267616261581472,0,FALSE,FALSE,0.6109761389997005,-0.5710502629355229
PKO,CANOONA RIVER,915-488300-84200-00000-0000-0000-000-000-000-000-000-000,6,PKO-13,1985,0,122.863,4.811069913474456,20000,9.903487552536127,34978.0189178862,36395.5028100768,1.7489009458943099,0.5589875597238599,0.0014,0.0021,0.122,0.28283,0.099321,CWH,-0.9758993397997916,0,FALSE,FALSE,0.6109761389997005,-0.5710502629355229
PKO,CANOONA RIVER,915-488300-84200-00000-0000-0000-000-000-000-000-000-000,6,PKO-13,1987,0,122.863,4.811069913474456,17000,9.740968623038354,18904.0804179581,34978.0189178862,1.1120047304681235,0.10616444983743903,0.0012,0.0017,0.122,0.28283,0.099321,CWH,0.8862048812919091,0,FALSE,FALSE,0.6109761389997005,-0.5763138957337526
PKO,CANOONA RIVER,915-488300-84200-00000-0000-0000-000-000-000-000-000-000,6,PKO-13,1989,0,122.863,4.811069913474456,17000,9.740968623038354,18447.7354847307,18904.0804179581,1.0851609108665117,0.08172828094242524,0.0012,0.0017,0.122,0.28283,0.099321,CWH,0.15947767939610902,0,FALSE,FALSE,0.6109761389997005,-0.5763138957337526
PKO,CANOONA RIVER,915-488300-84200-00000-0000-0000-000-000-000-000-000-000,6,PKO-13,1991,0,122.863,4.811069913474456,14000,9.546812608597396,22471.3623834218,18447.7354847307,1.6050973131015573,0.47318438595990486,0.0012,0.0017,0.122,0.28283,0.099321,CWH,-0.18487911555035336,0,FALSE,FALSE,0.6109761389997005,-0.5763138957337526
PKO,CANOONA RIVER,915-488300-84200-00000-0000-0000-000-000-000-000-000-000,6,PKO-13,1993,0,122.863,4.811069913474456,21000,9.95227771670556,15916.3893694363,22471.3623834218,0.7579233033064905,-0.2771730814320754,0.0012,0.0017,0.122,0.28283,0.099321,CWH,-1.7567819796155162,0,FALSE,FALSE,0.6109761389997005,-0.5763138957337526
PKO,CANOONA RIVER,915-488300-84200-00000-0000-0000-000-000-000-000-000-000,6,PKO-13,1995,0,122.863,4.811069913474456,14000,9.546812608597396,7065.62757914543,15916.3893694363,0.5046876842246736,-0.6838154881039106,0.0012,0.0017,0.122,0.28283,0.099321,CWH,-0.5672147431639023,0,FALSE,FALSE,0.6109761389997005,-0.5763138957337526
PKO,CANOONA RIVER,915-488300-84200-00000-0000-0000-000-000-000-000-000-000,6,PKO-13,1997,0,122.863,4.811069913474456,6000,8.699514748210191,4373.65658900889,7065.62757914543,0.7289427648348149,-0.31616006194209767,2e-4,3e-4,0.122,0.28283,0.099321,CWH,0.8907774948170872,0,FALSE,FALSE,0.6109761389997005,-0.5947366105275568
PKO,CANOONA RIVER,915-488300-84200-00000-0000-0000-000-000-000-000-000-000,6,PKO-13,1999,0,122.863,4.811069913474456,4000,8.294049640102028,16376.4320069028,4373.65658900889,4.0941080017257,1.4095488673810508,2e-4,3e-4,0.122,0.28283,0.099321,CWH,1.6302835492491898,0,FALSE,FALSE,0.6109761389997005,-0.5947366105275568
PKO,CANOONA RIVER,915-488300-84200-00000-0000-0000-000-000-000-000-000-000,6,PKO-13,2001,0,122.863,4.811069913474456,12000,9.392661928770137,6639.63095502894,16376.4320069028,0.553302579585745,-0.5918502669061377,2e-4,3e-4,0.122,0.28283,0.099321,CWH,1.9190067210816288,0,FALSE,FALSE,0.6109761389997005,-0.5947366105275568
PKO,CANOONA RIVER,915-488300-84200-00000-0000-0000-000-000-000-000-000-000,6,PKO-13,2003,0,122.863,4.811069913474456,4500,8.411832675758411,5968.70383855745,6639.63095502894,1.3263786307905443,0.28245239458647353,2e-4,3e-4,0.122,0.28283,0.099321,CWH,0.41101277747559006,0,FALSE,FALSE,0.6109761389997005,-0.5947366105275568
PKO,CANOONA RIVER,915-488300-84200-00000-0000-0000-000-000-000-000-000-000,6,PKO-13,2005,0,122.863,4.811069913474456,4000,8.294049640102028,4980.85664406099,5968.70383855745,1.2452141610152476,0.21930753200318087,2e-4,3e-4,0.122,0.28283,0.099321,CWH,-0.8145696192436794,0,FALSE,FALSE,0.6109761389997005,-0.5947366105275568
PKO,CANOONA RIVER,915-488300-84200-00000-0000-0000-000-000-000-000-000-000,6,PKO-13,2007,0,122.863,4.811069913474456,4000,8.294049640102028,18058.4922354456,4980.85664406099,4.5146230588614,1.5073216969743293,0,0,0.122,0.28283,0.099321,CWH,0.8768892458318005,0,FALSE,FALSE,0.6109761389997005,-0.5986843351262291
PKO,CANOONA RIVER,915-488300-84200-00000-0000-0000-000-000-000-000-000-000,6,PKO-13,2009,0,122.863,4.811069913474456,14000,9.546812608597396,2137.35536623105,18058.4922354456,0.15266824044507502,-1.8794880749970004,0,0,0.122,0.28283,0.099321,CWH,1.604652193542091,0,FALSE,FALSE,0.6109761389997005,-0.5986843351262291
PKO,CANOONA RIVER,915-488300-84200-00000-0000-0000-000-000-000-000-000-000,6,PKO-13,2011,0,122.863,4.811069913474456,1800,7.495541943884256,15692.4845900651,2137.35536623105,8.718046994480611,2.1653952443133275,0,0,0.122,0.28283,0.099321,CWH,0.7408851700104637,0,FALSE,FALSE,0.6109761389997005,-0.5986843351262291
PKO,SODA CREEK,915-488300-88700-00000-0000-0000-000-000-000-000-000-000,6,PKO-13,1955,0,45.243,3.8120479620466576,1500,7.313220387090301,708.728337461451,2870.31985043766,0.472485558307634,-0.7497480969437291,2e-4,2e-4,0.058,0.28539,0.149773,CWH,-0.07106879047729574,0,FALSE,FALSE,-0.0891431494336197,-0.5960525187271143
PKO,SODA CREEK,915-488300-88700-00000-0000-0000-000-000-000-000-000-000,6,PKO-13,1957,0,45.243,3.8120479620466576,400,5.991464547107982,4813.59611720924,708.728337461451,12.0339902930231,2.4877351701685426,2e-4,2e-4,0.058,0.28539,0.149773,CWH,-0.3276691034772351,0,FALSE,FALSE,-0.0891431494336197,-0.5960525187271143
PKO,SODA CREEK,915-488300-88700-00000-0000-0000-000-000-000-000-000-000,6,PKO-13,1959,0,45.243,3.8120479620466576,3500,8.160518247477505,29539.9567074604,4813.59611720924,8.439987630702971,2.1329808430502717,2e-4,2e-4,0.058,0.28539,0.149773,CWH,0.7824977620566573,0,FALSE,FALSE,-0.0891431494336197,-0.5960525187271143
PKO,SODA CREEK,915-488300-88700-00000-0000-0000-000-000-000-000-000-000,6,PKO-13,1961,0,45.243,3.8120479620466576,15000,9.615805480084347,147170.722046504,29539.9567074604,9.811381469766934,2.2835430862689106,2e-4,2e-4,0.058,0.28539,0.149773,CWH,0.00583928468743269,0,FALSE,FALSE,-0.0891431494336197,-0.5960525187271143
PKO,SODA CREEK,915-488300-88700-00000-0000-0000-000-000-000-000-000-000,6,PKO-13,1967,0,45.243,3.8120479620466576,750,6.620073206530356,2337.97124013883,1091.21709983172,3.1172949868517734,1.1369656343733172,2e-4,2e-4,0.058,0.28539,0.149773,CWH,-0.48089809283299456,0,FALSE,FALSE,-0.0891431494336197,-0.5960525187271143
PKO,SODA CREEK,915-488300-88700-00000-0000-0000-000-000-000-000-000-000,6,PKO-13,1969,0,45.243,3.8120479620466576,2000,7.600902459542082,15521.5035841946,2337.97124013883,7.7607517920973,2.0490792099274318,0,0,0.058,0.28539,0.149773,CWH,0.09673401232408343,0,FALSE,FALSE,-0.0891431494336197,-0.5986843351262291
PKO,SODA CREEK,915-488300-88700-00000-0000-0000-000-000-000-000-000-000,6,PKO-13,1971,0,45.243,3.8120479620466576,12000,9.392661928770137,15548.4071427392,15521.5035841946,1.2957005952282665,0.2590515490399321,0,0,0.058,0.28539,0.149773,CWH,-0.34080392906905344,0,FALSE,FALSE,-0.0891431494336197,-0.5986843351262291
PKO,SODA CREEK,915-488300-88700-00000-0000-0000-000-000-000-000-000-000,6,PKO-13,1973,0,45.243,3.8120479620466576,9000,9.104979856318357,861.259193783996,15548.4071427392,0.09569546597599955,-2.346584359116845,6e-4,7e-4,0.058,0.28539,0.149773,CWH,-0.20355231452664888,0,FALSE,FALSE,-0.0891431494336197,-0.589472977729327
PKO,SODA CREEK,915-488300-88700-00000-0000-0000-000-000-000-000-000-000,6,PKO-13,1975,0,45.243,3.8120479620466576,600,6.396929655216146,4476.15411703003,861.259193783996,7.460256861716716,2.009589845488418,6e-4,7e-4,0.058,0.28539,0.149773,CWH,1.2286162579398736,0,FALSE,FALSE,-0.0891431494336197,-0.589472977729327
PKO,SODA CREEK,915-488300-88700-00000-0000-0000-000-000-000-000-000-000,6,PKO-13,1977,0,45.243,3.8120479620466576,2600,7.8632667240095735,42059.2570247724,4476.15411703003,16.176637317220155,2.78356806043994,6e-4,7e-4,0.058,0.28539,0.149773,CWH,0.9724829797884954,0,FALSE,FALSE,-0.0891431494336197,-0.589472977729327
PKO,SODA CREEK,915-488300-88700-00000-0000-0000-000-000-000-000-000-000,6,PKO-13,1979,0,45.243,3.8120479620466576,25000,10.126631103850338,43831.2795193806,42059.2570247724,1.753251180775224,0.5614718819126107,6e-4,6e-4,0.058,0.28539,0.149773,CWH,-1.19975713829789,0,FALSE,FALSE,-0.0891431494336197,-0.5907888859288845
PKO,SODA CREEK,915-488300-88700-00000-0000-0000-000-000-000-000-000-000,6,PKO-13,1981,0,45.243,3.8120479620466576,15000,9.615805480084347,14609.5479291099,43831.2795193806,0.97396986194066,-0.026374918384390475,6e-4,6e-4,0.058,0.28539,0.149773,CWH,-0.22613906119882837,0,FALSE,FALSE,-0.0891431494336197,-0.5907888859288845
PKO,SODA CREEK,915-488300-88700-00000-0000-0000-000-000-000-000-000-000,6,PKO-13,1983,0,45.243,3.8120479620466576,8500,9.047821442478408,6369.21299176343,14609.5479291099,0.74931917550158,-0.2885902507187425,8e-4,8e-4,0.058,0.28539,0.149773,CWH,0.10267616261581472,0,FALSE,FALSE,-0.0891431494336197,-0.5881570695297695
PKO,SODA CREEK,915-488300-88700-00000-0000-0000-000-000-000-000-000-000,6,PKO-13,1985,0,45.243,3.8120479620466576,3500,8.160518247477505,4732.32020653755,6369.21299176343,1.352091487582157,0.301652643661372,8e-4,8e-4,0.058,0.28539,0.149773,CWH,-0.9758993397997916,0,FALSE,FALSE,-0.0891431494336197,-0.5881570695297695
PKO,SODA CREEK,915-488300-88700-00000-0000-0000-000-000-000-000-000-000,6,PKO-13,1987,186415.922128885,45.243,3.8120479620466576,2300,7.7406644019172415,6227.22649062149,4732.32020653755,2.7074897785310825,0.9960219246434383,0.0049,0.0054,0.058,0.28539,0.149773,CWH,0.8862048812919091,0,FALSE,FALSE,-0.0891431494336197,-0.5276252923501272
PKO,SODA CREEK,915-488300-88700-00000-0000-0000-000-000-000-000-000-000,6,PKO-13,1989,0,45.243,3.8120479620466576,5600,8.630521876723241,16471.192397081,6227.22649062149,2.941284356621607,1.0788463419505356,0.0049,0.0054,0.058,0.28539,0.149773,CWH,0.15947767939610902,0,FALSE,FALSE,-0.0891431494336197,-0.5276252923501272
PKO,SODA CREEK,915-488300-88700-00000-0000-0000-000-000-000-000-000-000,6,PKO-13,1991,0,45.243,3.8120479620466576,12500,9.433483923290392,13910.8433802135,16471.192397081,1.11286747041708,0.10693999100502202,0.0049,0.0054,0.058,0.28539,0.149773,CWH,-0.18487911555035336,0,FALSE,FALSE,-0.0891431494336197,-0.5276252923501272
PKO,SODA CREEK,915-488300-88700-00000-0000-0000-000-000-000-000-000-000,6,PKO-13,1993,0,45.243,3.8120479620466576,13000,9.472704636443673,14211.0619369967,13910.8433802135,1.0931586105382078,0.08907131352280803,0.0045,0.005,0.058,0.28539,0.149773,CWH,-1.7567819796155162,0,FALSE,FALSE,-0.0891431494336197,-0.5328889251483571
PKO,SODA CREEK,915-488300-88700-00000-0000-0000-000-000-000-000-000-000,6,PKO-13,1995,0,45.243,3.8120479620466576,12500,9.433483923290392,4710.41838609695,14211.0619369967,0.376833470887756,-0.9759519109050726,0.0045,0.005,0.058,0.28539,0.149773,CWH,-0.5672147431639023,0,FALSE,FALSE,-0.0891431494336197,-0.5328889251483571
PKO,SODA CREEK,915-488300-88700-00000-0000-0000-000-000-000-000-000-000,6,PKO-13,1997,0,45.243,3.8120479620466576,4000,8.294049640102028,9294.02025164389,4710.41838609695,2.3235050629109724,0.8430768485424468,0.0045,0.005,0.058,0.28539,0.149773,CWH,0.8907774948170872,0,FALSE,FALSE,-0.0891431494336197,-0.5328889251483571
PKO,SODA CREEK,915-488300-88700-00000-0000-0000-000-000-000-000-000-000,6,PKO-13,1999,0,45.243,3.8120479620466576,8500,9.047821442478408,31388.1613465637,9294.02025164389,3.6927248643016117,1.3063646311458201,0.0035,0.0039,0.058,0.28539,0.149773,CWH,1.6302835492491898,0,FALSE,FALSE,-0.0891431494336197,-0.5473639153434889
PKO,SODA CREEK,915-488300-88700-00000-0000-0000-000-000-000-000-000-000,6,PKO-13,2001,0,45.243,3.8120479620466576,23000,10.043249494911286,8557.74656425952,31388.1613465637,0.37207593757650087,-0.9886573122711878,0.0035,0.0039,0.058,0.28539,0.149773,CWH,1.9190067210816288,0,FALSE,FALSE,-0.0891431494336197,-0.5473639153434889
PKO,SODA CREEK,915-488300-88700-00000-0000-0000-000-000-000-000-000-000,6,PKO-13,2003,0,45.243,3.8120479620466576,5800,8.66561319653451,5968.70383855745,8557.74656425952,1.0290868687168018,0.0286718738103741,0.0033,0.0037,0.058,0.28539,0.149773,CWH,0.41101277747559006,0,FALSE,FALSE,-0.0891431494336197,-0.5499957317426037
PKO,SODA CREEK,915-488300-88700-00000-0000-0000-000-000-000-000-000-000,6,PKO-13,2011,163987.348844121,45.243,3.8120479620466576,2000,7.600902459542082,7846.24229503257,2374.83929581227,3.923121147516285,1.3668875480955585,0.0049,0.0055,0.058,0.28539,0.149773,CWH,0.7408851700104637,0,FALSE,FALSE,-0.0891431494336197,-0.5263093841505698
PKO,LITTLE CREEK,915-488300-92500-00000-0000-0000-000-000-000-000-000-000,6,PKO-12,1955,0,26.435,3.2746888896874133,750,6.620073206530356,149.471409903902,1530.94773803503,0.1992952132052027,-1.6129680700889422,0.023,0.0297,0.083,0.29706,0.076139,CWH,-0.07106879047729574,0,FALSE,FALSE,-0.4657269180241472,-0.20785959985766897
PKO,LITTLE CREEK,915-488300-92500-00000-0000-0000-000-000-000-000-000-000,6,PKO-12,1957,0,26.435,3.2746888896874133,75,4.31748811353631,37.2376563172019,149.471409903902,0.4965020842293587,-0.7001675976620979,0.023,0.0297,0.083,0.29706,0.076139,CWH,-0.3276691034772351,0,FALSE,FALSE,-0.4657269180241472,-0.20785959985766897
PKO,LITTLE CREEK,915-488300-92500-00000-0000-0000-000-000-000-000-000-000,6,PKO-12,1959,0,26.435,3.2746888896874133,25,3.2188758248682006,917.601300367671,37.2376563172019,36.70405201470684,3.602887158085964,0.0182,0.0235,0.083,0.29706,0.076139,CWH,0.7824977620566573,0,FALSE,FALSE,-0.4657269180241472,-0.28944590823023036
PKO,LITTLE CREEK,915-488300-92500-00000-0000-0000-000-000-000-000-000-000,6,PKO-12,1961,52584.1989187177,26.435,3.2746888896874133,400,5.991464547107982,721.843007111491,917.601300367671,1.8046075177787275,0.5903431264671408,0.0202,0.0261,0.083,0.29706,0.076139,CWH,0.00583928468743269,0,FALSE,FALSE,-0.4657269180241472,-0.25523229504173683
PKO,LITTLE CREEK,915-488300-92500-00000-0000-0000-000-000-000-000-000-000,6,PKO-12,1975,0,26.435,3.2746888896874133,100,4.605170185988092,48.9464795952317,153.36349203911,0.489464795952317,-0.7144427379791977,0.0068,0.0087,0.083,0.29706,0.076139,CWH,1.2286162579398736,0,FALSE,FALSE,-0.4657269180241472,-0.4842003217647317