Species,River,WATERSHED_CDE,DFO,CU,BroodYear,hararea_m2_3005,area_km2,ln_area_km2,Spawners,logS,Recruits,Returns,recruitPerSpawner,ln_RS,ECA_age_proxy,ECA_age_proxy_forested_only,lake_cover_pct,var_eaubc_KFACTOR,var_eaubc_MELTONS_R,vri_bec_zone,npgo,portion_reporting_vri_cover1_missing,hatchery_enhancement,year_of_enhacement,ln_area_km2_std,ECA_age_proxy_forested_only_std
PKO,KADJUSDIS RIVER,915-230500-47800-00000-0000-0000-000-000-000-000-000-000,7,PKO-12,1971,0,33.546,3.5129176312725634,5000,8.517193191416238,9486.20258490255,6969.27406105316,1.89724051698051,0.6404004709921265,0.0012,0.0017,0.112,0.2329,0.126273,CWH,-0.34080392906905344,0,FALSE,FALSE,-0.2987750939880616,-0.5763138957337526
PKO,KADJUSDIS RIVER,915-230500-47800-00000-0000-0000-000-000-000-000-000-000,7,PKO-12,1973,0,33.546,3.5129176312725634,5000,8.517193191416238,3067.26984078219,9486.20258490255,0.6134539681564379,-0.4886500491760255,0.0012,0.0017,0.112,0.2329,0.126273,CWH,-0.20355231452664888,0,FALSE,FALSE,-0.2987750939880616,-0.5763138957337526
PKO,KADJUSDIS RIVER,915-230500-47800-00000-0000-0000-000-000-000-000-000-000,7,PKO-12,1975,0,33.546,3.5129176312725634,2000,7.600902459542082,25452.1693895205,3067.26984078219,12.72608469476025,2.543653800042285,0.0012,0.0017,0.112,0.2329,0.126273,CWH,1.2286162579398736,0,FALSE,FALSE,-0.2987750939880616,-0.5763138957337526
PKO,KADJUSDIS RIVER,915-230500-47800-00000-0000-0000-000-000-000-000-000-000,7,PKO-12,1977,177630.610813809,33.546,3.5129176312725634,13000,9.472704636443673,5297.88902281784,25452.1693895205,0.4075299248321415,-0.8976409138265504,0.0065,0.0092,0.112,0.2329,0.126273,CWH,0.9724829797884954,0,FALSE,FALSE,-0.2987750939880616,-0.47762078076694453
PKO,KADJUSDIS RIVER,915-230500-47800-00000-0000-0000-000-000-000-000-000-000,7,PKO-12,1979,0,33.546,3.5129176312725634,3500,8.160518247477505,4138.81293845239,5297.88902281784,1.1825179824149685,0.16764604838457642,0.0065,0.0092,0.112,0.2329,0.126273,CWH,-1.19975713829789,0,FALSE,FALSE,-0.2987750939880616,-0.47762078076694453
PKO,KADJUSDIS RIVER,915-230500-47800-00000-0000-0000-000-000-000-000-000-000,7,PKO-12,1981,0,33.546,3.5129176312725634,2000,7.600902459542082,7547.85261570259,4138.81293845239,3.773926307851295,1.3281159204842015,0.0065,0.0092,0.112,0.2329,0.126273,CWH,-0.22613906119882837,0,FALSE,FALSE,-0.2987750939880616,-0.47762078076694453
PKO,KADJUSDIS RIVER,915-230500-47800-00000-0000-0000-000-000-000-000-000-000,7,PKO-12,1983,0,33.546,3.5129176312725634,5000,8.517193191416238,2260.85405632027,7547.85261570259,0.452170811264054,-0.7936952695098466,0.0065,0.0092,0.112,0.2329,0.126273,CWH,0.10267616261581472,0,FALSE,FALSE,-0.2987750939880616,-0.47762078076694453
PKO,KADJUSDIS RIVER,915-230500-47800-00000-0000-0000-000-000-000-000-000-000,7,PKO-12,1985,0,33.546,3.5129176312725634,1400,7.24422751560335,1812.84464533406,2260.85405632027,1.2948890323814715,0.2584250021992479,0.0065,0.0092,0.112,0.2329,0.126273,CWH,-0.9758993397997916,0,FALSE,FALSE,-0.2987750939880616,-0.47762078076694453
PKO,KADJUSDIS RIVER,915-230500-47800-00000-0000-0000-000-000-000-000-000-000,7,PKO-12,1987,0,33.546,3.5129176312725634,1000,6.907755278982137,655.786642434261,1812.84464533406,0.655786642434261,-0.42191978313178535,0.0065,0.0092,0.112,0.2329,0.126273,CWH,0.8862048812919091,0,FALSE,FALSE,-0.2987750939880616,-0.47762078076694453
PKO,KADJUSDIS RIVER,915-230500-47800-00000-0000-0000-000-000-000-000-000-000,7,PKO-12,1989,0,33.546,3.5129176312725634,550,6.309918278226516,2384.38815317725,655.786642434261,4.3352511875949995,1.4667795526357033,0.0052,0.0073,0.112,0.2329,0.126273,CWH,0.15947767939610902,0,FALSE,FALSE,-0.2987750939880616,-0.5026230365585359
PKO,KUNSOOT RIVER,915-230500-54600-00000-0000-0000-000-000-000-000-000-000,7,PKO-12,1955,0,5.891,1.7734257625395502,12500,9.433483923290392,5978.85639615606,25515.7956339171,0.47830851169248484,-0.7374993327350456,0.0078,0.01,0.061,0.22514,0.105394,CWH,-0.07106879047729574,0,FALSE,FALSE,-1.5178191876962674,-0.467093515170485
PKO,KUNSOOT RIVER,915-230500-54600-00000-0000-0000-000-000-000-000-000-000,7,PKO-12,1957,0,5.891,1.7734257625395502,3000,8.006367567650246,2681.11125483853,5978.85639615606,0.8937037516128433,-0.11238093275998154,0.0078,0.01,0.061,0.22514,0.105394,CWH,-0.3276691034772351,0,FALSE,FALSE,-1.5178191876962674,-0.467093515170485
PKO,KUNSOOT RIVER,915-230500-54600-00000-0000-0000-000-000-000-000-000-000,7,PKO-12,1959,0,5.891,1.7734257625395502,1800,7.495541943884256,3441.00487637877,2681.11125483853,1.9116693757659833,0.6479768790522289,0.0049,0.0063,0.061,0.22514,0.105394,CWH,0.7824977620566573,0,FALSE,FALSE,-1.5178191876962674,-0.5157821185541103
PKO,KUNSOOT RIVER,915-230500-54600-00000-0000-0000-000-000-000-000-000-000,7,PKO-12,1961,0,5.891,1.7734257625395502,1500,7.313220387090301,2706.91127666809,3441.00487637877,1.8046075177787266,0.5903431264671403,0.0049,0.0063,0.061,0.22514,0.105394,CWH,0.00583928468743269,0,FALSE,FALSE,-1.5178191876962674,-0.5157821185541103
PKO,KUNSOOT RIVER,915-230500-54600-00000-0000-0000-000-000-000-000-000-000,7,PKO-12,1963,0,5.891,1.7734257625395502,1500,7.313220387090301,4840.57034581606,2706.91127666809,3.2270468972107063,1.1715674457224237,0.0049,0.0063,0.061,0.22514,0.105394,CWH,0.5797944041154652,0,FALSE,FALSE,-1.5178191876962674,-0.5157821185541103
PKO,KUNSOOT RIVER,915-230500-54600-00000-0000-0000-000-000-000-000-000-000,7,PKO-12,1965,0,5.891,1.7734257625395502,2000,7.600902459542082,2170.75636732119,4840.57034581606,1.085378183660595,0.08192848262997537,0.0049,0.0063,0.061,0.22514,0.105394,CWH,-0.7093794641235007,0,FALSE,FALSE,-1.5178191876962674,-0.5157821185541103
PKO,KUNSOOT RIVER,915-230500-54600-00000-0000-0000-000-000-000-000-000-000,7,PKO-12,1967,0,5.891,1.7734257625395502,1000,6.907755278982137,14345.2914337854,2170.75636732119,14.3452914337854,2.6634217652803165,0.0049,0.0063,0.061,0.22514,0.105394,CWH,-0.48089809283299456,0,FALSE,FALSE,-1.5178191876962674,-0.5157821185541103
PKO,KUNSOOT RIVER,915-230500-54600-00000-0000-0000-000-000-000-000-000-000,7,PKO-12,1969,0,5.891,1.7734257625395502,8000,8.987196820661973,27877.0962442126,14345.2914337854,3.484637030526575,1.2483638868590516,0.001,0.0013,0.061,0.22514,0.105394,CWH,0.09673401232408343,0,FALSE,FALSE,-1.5178191876962674,-0.5815775285319824
PKO,KUNSOOT RIVER,915-230500-54600-00000-0000-0000-000-000-000-000-000-000,7,PKO-12,1971,0,5.891,1.7734257625395502,20000,9.903487552536127,3794.48103396102,27877.0962442126,0.18972405169805098,-1.6621846220019192,0.001,0.0013,0.061,0.22514,0.105394,CWH,-0.34080392906905344,0,FALSE,FALSE,-1.5178191876962674,-0.5815775285319824
PKO,KUNSOOT RIVER,915-230500-54600-00000-0000-0000-000-000-000-000-000-000,7,PKO-12,1973,0,5.891,1.7734257625395502,2000,7.600902459542082,1533.6349203911,3794.48103396102,0.76681746019555,-0.2655064978618124,0.001,0.0013,0.061,0.22514,0.105394,CWH,-0.20355231452664888,0,FALSE,FALSE,-1.5178191876962674,-0.5815775285319824
PKO,KUNSOOT RIVER,915-230500-54600-00000-0000-0000-000-000-000-000-000-000,7,PKO-12,1975,0,5.891,1.7734257625395502,1000,6.907755278982137,35241.4653085668,1533.6349203911,35.2414653085668,3.562223381036857,0.001,0.0013,0.061,0.22514,0.105394,CWH,1.2286162579398736,0,FALSE,FALSE,-1.5178191876962674,-0.5815775285319824
PKO,KUNSOOT RIVER,915-230500-54600-00000-0000-0000-000-000-000-000-000-000,7,PKO-12,1977,18213.5064706658,5.891,1.7734257625395502,18000,9.798127036878302,10595.7780456357,35241.4653085668,0.58865433586865,-0.529916133701231,0.0041,0.0052,0.061,0.22514,0.105394,CWH,0.9724829797884954,0,FALSE,FALSE,-1.5178191876962674,-0.5302571087492421
PKO,KUNSOOT RIVER,915-230500-54600-00000-0000-0000-000-000-000-000-000-000,7,PKO-12,1979,0,5.891,1.7734257625395502,7000,8.85366542803745,1241.64388153572,10595.7780456357,0.17737769736224573,-1.7294739365013023,0.0031,0.004,0.061,0.22514,0.105394,CWH,-1.19975713829789,0,FALSE,FALSE,-1.5178191876962674,-0.5460480071439315
PKO,KUNSOOT RIVER,915-230500-54600-00000-0000-0000-000-000-000-000-000-000,7,PKO-12,1981,0,5.891,1.7734257625395502,600,6.396929655216146,9057.42313884311,1241.64388153572,15.095705231405185,2.7144102816040925,0.0031,0.004,0.061,0.22514,0.105394,CWH,-0.22613906119882837,0,FALSE,FALSE,-1.5178191876962674,-0.5460480071439315
PKO,KUNSOOT RIVER,915-230500-54600-00000-0000-0000-000-000-000-000-000-000,7,PKO-12,1983,0,5.891,1.7734257625395502,6000,8.699514748210191,7751.49962166949,9057.42313884311,1.2919166036115817,0.2561268549888302,0.0031,0.004,0.061,0.22514,0.105394,CWH,0.10267616261581472,0,FALSE,FALSE,-1.5178191876962674,-0.5460480071439315
PKO,KUNSOOT RIVER,915-230500-54600-00000-0000-0000-000-000-000-000-000-000,7,PKO-12,1985,0,5.891,1.7734257625395502,4800,8.476371196895983,1613.43173434731,7751.49962166949,0.33613161132235625,-1.090252495349338,0.0031,0.004,0.061,0.22514,0.105394,CWH,-0.9758993397997916,0,FALSE,FALSE,-1.5178191876962674,-0.5460480071439315
PKO,KUNSOOT RIVER,915-230500-54600-00000-0000-0000-000-000-000-000-000-000,7,PKO-12,1987,0,5.891,1.7734257625395502,890,6.7912214627261855,4173.18772458166,1613.43173434731,4.688974971440068,1.5452140023751546,0.0031,0.004,0.061,0.22514,0.105394,CWH,0.8862048812919091,0,FALSE,FALSE,-1.5178191876962674,-0.5460480071439315
PKO,KUNSOOT RIVER,915-230500-54600-00000-0000-0000-000-000-000-000-000-000,7,PKO-12,1989,0,5.891,1.7734257625395502,3500,8.160518247477505,1815.59597624442,4173.18772458166,0.5187417074984056,-0.6563491931102413,0.0023,0.003,0.061,0.22514,0.105394,CWH,0.15947767939610902,0,FALSE,FALSE,-1.5178191876962674,-0.5592070891395059
PKO,KUNSOOT RIVER,915-230500-54600-00000-0000-0000-000-000-000-000-000-000,7,PKO-12,1991,0,5.891,1.7734257625395502,1280,7.154615356913663,13137.6163157003,1815.59597624442,10.26376274664086,2.3286195119488333,0.0023,0.003,0.061,0.22514,0.105394,CWH,-0.18487911555035336,0,FALSE,FALSE,-1.5178191876962674,-0.5592070891395059
PKO,KUNSOOT RIVER,915-230500-54600-00000-0000-0000-000-000-000-000-000-000,7,PKO-12,1999,0,5.891,1.7734257625395502,5000,8.517193191416238,5114.07232377335,5655.21142102339,1.02281446475467,0.022558106644894906,0.0097,0.0125,0.061,0.22514,0.105394,CWH,1.6302835492491898,0,FALSE,FALSE,-1.5178191876962674,-0.4341958101815489
PKO,KUNSOOT RIVER,915-230500-54600-00000-0000-0000-000-000-000-000-000-000,7,PKO-12,2005,0,5.891,1.7734257625395502,1500,7.313220387090301,6990.59996160063,1873.46126303535,4.66039997440042,1.5391012758706484,0.0097,0.0125,0.061,0.22514,0.105394,CWH,-0.8145696192436794,0,FALSE,FALSE,-1.5178191876962674,-0.4341958101815489
PKO,SCRIBNER CREEK,915-233500-13600-00000-0000-0000-000-000-000-000-000-000,7,PKO-12,1955,0,13.899,2.631816895102621,750,6.620073206530356,6975.33246218207,1530.94773803503,9.300443282909427,2.230062063852249,2e-4,2e-4,0.096,0.22492,0.226889,CWH,-0.07106879047729574,0,FALSE,FALSE,-0.9162546394212109,-0.5960525187271143
PKO,SCRIBNER CREEK,915-233500-13600-00000-0000-0000-000-000-000-000-000-000,7,PKO-12,1957,111485.447800141,13.899,2.631816895102621,3500,8.160518247477505,297.901250537615,6975.33246218207,0.08511464301074714,-2.4637561899234575,0.0082,0.0091,0.096,0.22492,0.226889,CWH,-0.3276691034772351,0,FALSE,FALSE,-0.9162546394212109,-0.4789366889665019
PKO,SCRIBNER CREEK,915-233500-13600-00000-0000-0000-000-000-000-000-000-000,7,PKO-12,1959,0,13.899,2.631816895102621,200,5.298317366548036,458.800650183836,297.901250537615,2.29400325091918,0.8302984358461836,0.008,0.0089,0.096,0.22492,0.226889,CWH,0.7824977620566573,0,FALSE,FALSE,-0.9162546394212109,-0.48156850536561685
PKO,SCRIBNER CREEK,915-233500-13600-00000-0000-0000-000-000-000-000-000-000,7,PKO-12,1961,0,13.899,2.631816895102621,200,5.298317366548036,360.921503555745,458.800650183836,1.804607517778725,0.5903431264671395,0.008,0.0089,0.096,0.22492,0.226889,CWH,0.00583928468743269,0,FALSE,FALSE,-0.9162546394212109,-0.48156850536561685
PKO,SCRIBNER CREEK,915-233500-13600-00000-0000-0000-000-000-000-000-000-000,7,PKO-12,1963,0,13.899,2.631816895102621,200,5.298317366548036,363.042775936204,360.921503555745,1.81521387968102,0.5962033008188605,0.009,0.0101,0.096,0.22492,0.226889,CWH,0.5797944041154652,0,FALSE,FALSE,-0.9162546394212109,-0.46577760697092757
PKO,SCRIBNER CREEK,915-233500-13600-00000-0000-0000-000-000-000-000-000-000,7,PKO-12,1965,0,13.899,2.631816895102621,150,5.0106352940962555,217.075636732119,363.042775936204,1.44717091154746,0.3696105550817564,0.009,0.0101,0.096,0.22492,0.226889,CWH,-0.7093794641235007,0,FALSE,FALSE,-0.9162546394212109,-0.46577760697092757
PKO,SCRIBNER CREEK,915-233500-13600-00000-0000-0000-000-000-000-000-000-000,7,PKO-12,1967,408878.008584634,13.899,2.631816895102621,100,4.605170185988092,717.264571689272,217.075636732119,7.17264571689272,1.970274584720374,0.0384,0.0429,0.096,0.22492,0.226889,CWH,-0.48089809283299456,0,FALSE,FALSE,-0.9162546394212109,-0.03415971751608666
PKO,SCRIBNER CREEK,915-233500-13600-00000-0000-0000-000-000-000-000-000-000,7,PKO-12,1969,0,13.899,2.631816895102621,400,5.991464547107982,2090.78221831595,717.264571689272,5.226955545789875,1.6538289949672185,0.0364,0.0406,0.096,0.22492,0.226889,CWH,0.09673401232408343,0,FALSE,FALSE,-0.9162546394212109,-0.06442560610590786
PKO,SCRIBNER CREEK,915-233500-13600-00000-0000-0000-000-000-000-000-000-000,7,PKO-12,1971,0,13.899,2.631816895102621,1500,7.313220387090301,948.620258490255,2090.78221831595,0.63241350566017,-0.45821181767598324,0.0364,0.0406,0.096,0.22492,0.226889,CWH,-0.34080392906905344,0,FALSE,FALSE,-0.9162546394212109,-0.06442560610590786
PKO,SCRIBNER CREEK,915-233500-13600-00000-0000-0000-000-000-000-000-000-000,7,PKO-12,1973,0,13.899,2.631816895102621,500,6.214608098422191,1073.54444427377,948.620258490255,2.14708888854754,0.7641129193193459,0.0362,0.0403,0.096,0.22492,0.226889,CWH,-0.20355231452664888,0,FALSE,FALSE,-0.9162546394212109,-0.06837333070458011
PKO,SCRIBNER CREEK,915-233500-13600-00000-0000-0000-000-000-000-000-000-000,7,PKO-12,1975,0,13.899,2.631816895102621,700,6.551080335043404,6069.36346980873,1073.54444427377,8.6705192425839,2.159928678570526,0.0362,0.0403,0.096,0.22492,0.226889,CWH,1.2286162579398736,0,FALSE,FALSE,-0.9162546394212109,-0.06837333070458011
PKO,SCRIBNER CREEK,915-233500-13600-00000-0000-0000-000-000-000-000-000-000,7,PKO-12,1977,44217.6831532316,13.899,2.631816895102621,3100,8.039157390473237,681.15716007658,6069.36346980873,0.21972811615373547,-1.515364332569253,0.0394,0.0439,0.096,0.22492,0.226889,CWH,0.9724829797884954,0,FALSE,FALSE,-0.9162546394212109,-0.02100063552051223
PKO,SCRIBNER CREEK,915-233500-13600-00000-0000-0000-000-000-000-000-000-000,7,PKO-12,1979,0,13.899,2.631816895102621,450,6.1092475827643655,2276.34711614882,681.15716007658,5.058549146997378,1.6210797123420981,0.028,0.0312,0.096,0.22492,0.226889,CWH,-1.19975713829789,0,FALSE,FALSE,-0.9162546394212109,-0.18812097686430737
PKO,SCRIBNER CREEK,915-233500-13600-00000-0000-0000-000-000-000-000-000-000,7,PKO-12,1981,0,13.899,2.631816895102621,1100,7.003065458786462,2370.02572133061,2276.34711614882,2.1545688375732817,0.7675906281659367,0.028,0.0312,0.096,0.22492,0.226889,CWH,-0.22613906119882837,0,FALSE,FALSE,-0.9162546394212109,-0.18812097686430737
PKO,SCRIBNER CREEK,915-233500-13600-00000-0000-0000-000-000-000-000-000-000,7,PKO-12,1983,0,13.899,2.631816895102621,1570,7.358830898342354,2131.66239595911,2370.02572133061,1.3577467490185415,0.30582652354110296,0.0275,0.0307,0.096,0.22492,0.226889,CWH,0.10267616261581472,0,FALSE,FALSE,-0.9162546394212109,-0.19470051786209452
PKO,SCRIBNER CREEK,915-233500-13600-00000-0000-0000-000-000-000-000-000-000,7,PKO-12,1985,0,13.899,2.631816895102621,1320,7.1853870155804165,154.091794853395,2131.66239595911,0.11673620822226893,-2.14783852026964,0.0275,0.0307,0.096,0.22492,0.226889,CWH,-0.9758993397997916,0,FALSE,FALSE,-0.9162546394212109,-0.19470051786209452
PKO,SCRIBNER CREEK,915-233500-13600-00000-0000-0000-000-000-000-000-000-000,7,PKO-12,1987,0,13.899,2.631816895102621,85,4.442651256490317,357.701804964142,154.091794853395,4.208256528989906,1.4370484357897186,0.0275,0.0307,0.096,0.22492,0.226889,CWH,0.8862048812919091,0,FALSE,FALSE,-0.9162546394212109,-0.19470051786209452
PKO,SCRIBNER CREEK,915-233500-13600-00000-0000-0000-000-000-000-000-000-000,7,PKO-12,2007,0,13.899,2.631816895102621,1300,7.170119543449628,9775.9013230017,1514.62999168014,7.519924094616693,2.017556044109834,0.0086,0.0096,0.096,0.22492,0.226889,CWH,0.8768892458318005,0,FALSE,FALSE,-0.9162546394212109,-0.47235714796871475
PKO,WEBSTER LAKE CREEK,915-233500-67300-00000-0000-0000-000-000-000-000-000-000,7,PKO-12,1955,0,25.078,3.2219909677683463,1800,7.495541943884256,1992.95213205202,3674.27457128406,1.1071956289177889,0.10183035800298107,0.0028,0.0038,0.228,0.21535,0.155209,CWH,-0.07106879047729574,0,FALSE,FALSE,-0.5026578698847765,-0.5486798235430463
PKO,WEBSTER LAKE CREEK,915-233500-67300-00000-0000-0000-000-000-000-000-000-000,7,PKO-12,1957,0,25.078,3.2219909677683463,1000,6.907755278982137,2979.01250537615,1992.95213205202,2.97901250537615,1.0915918715659563,0.0028,0.0038,0.228,0.21535,0.155209,CWH,-0.3276691034772351,0,FALSE,FALSE,-0.5026578698847765,-0.5486798235430463
PKO,WEBSTER LAKE CREEK,915-233500-67300-00000-0000-0000-000-000-000-000-000-000,7,PKO-12,1959,0,25.078,3.2219909677683463,2000,7.600902459542082,2752.80390110301,2979.01250537615,1.376401950551505,0.3194728120801907,0.0015,0.002,0.228,0.21535,0.155209,CWH,0.7824977620566573,0,FALSE,FALSE,-0.5026578698847765,-0.5723661711350803
PKO,WEBSTER LAKE CREEK,915-233500-67300-00000-0000-0000-000-000-000-000-000-000,7,PKO-12,1961,0,25.078,3.2219909677683463,1200,7.090076835776092,2706.91127666809,2752.80390110301,2.2557593972234082,0.8134866777813501,0.0015,0.002,0.228,0.21535,0.155209,CWH,0.00583928468743269,0,FALSE,FALSE,-0.5026578698847765,-0.5723661711350803
PKO,WEBSTER LAKE CREEK,915-233500-67300-00000-0000-0000-000-000-000-000-000-000,7,PKO-12,1963,0,25.078,3.2219909677683463,1500,7.313220387090301,1210.14258645401,2706.91127666809,0.8067617243026732,-0.21472691539747107,0.0015,0.002,0.228,0.21535,0.155209,CWH,0.5797944041154652,0,FALSE,FALSE,-0.5026578698847765,-0.5723661711350803
PKO,WEBSTER LAKE CREEK,915-233500-67300-00000-0000-0000-000-000-000-000-000-000,7,PKO-12,1969,0,25.078,3.2219909677683463,200,5.298317366548036,278.770962442126,358.632285844636,1.39385481221063,0.3320731549848966,0.0026,0.0035,0.228,0.21535,0.155209,CWH,0.09673401232408343,0,FALSE,FALSE,-0.5026578698847765,-0.5526275481417187
PKO,WEBSTER LAKE CREEK,915-233500-67300-00000-0000-0000-000-000-000-000-000-000,7,PKO-12,1975,0,25.078,3.2219909677683463,100,4.605170185988092,2741.00285733298,153.36349203911,27.4100285733298,3.310908952755953,0.0026,0.0035,0.228,0.21535,0.155209,CWH,1.2286162579398736,0,FALSE,FALSE,-0.5026578698847765,-0.5526275481417187
PKO,WEBSTER LAKE CREEK,915-233500-67300-00000-0000-0000-000-000-000-000-000-000,7,PKO-12,1977,0,25.078,3.2219909677683463,1400,7.24422751560335,13017.6701703524,2741.00285733298,9.298335835966,2.229835441777867,0.0026,0.0035,0.228,0.21535,0.155209,CWH,0.9724829797884954,0,FALSE,FALSE,-0.5026578698847765,-0.5526275481417187
PKO,WEBSTER LAKE CREEK,915-233500-67300-00000-0000-0000-000-000-000-000-000-000,7,PKO-12,1979,0,25.078,3.2219909677683463,8600,9.0595174822416,4345.75358537501,13017.6701703524,0.5053201843459314,-0.6825630222100855,0.0021,0.0028,0.228,0.21535,0.155209,CWH,-1.19975713829789,0,FALSE,FALSE,-0.5026578698847765,-0.5618389055386208
PKO,WEBSTER LAKE CREEK,915-233500-67300-00000-0000-0000-000-000-000-000-000-000,7,PKO-12,1981,0,25.078,3.2219909677683463,2100,7.649692623711514,754.785261570259,4345.75358537501,0.3594215531286947,-1.0232593366792764,0.0021,0.0028,0.228,0.21535,0.155209,CWH,-0.22613906119882837,0,FALSE,FALSE,-0.5026578698847765,-0.5618389055386208